;;
;; Generated by CHARMM-GUI (http://www.charmm-gui.org) v1.7
;;
;; psf2itp_mol.py
;;
;; Correspondance:
;; jul316@lehigh.edu or wonpil@lehigh.edu
;;
;; GROMACS topology file for LIG
;;


[ moleculetype ]
; name	nrexcl
LIG	     3

[ atoms ]
; nr	type	resnr	residu	atom	cgnr	charge	mass
     1     CG2R61      1      LIG     C1      1     -0.117    12.0110   ; qtot -0.117
     2     CG2R61      1      LIG     C2      2      0.001    12.0110   ; qtot -0.116
     3     CG2R61      1      LIG     C3      3     -0.121    12.0110   ; qtot -0.237
     4     CG2R67      1      LIG     C4      4      0.012    12.0110   ; qtot -0.225
     5     CG2R61      1      LIG     C5      5     -0.121    12.0110   ; qtot -0.346
     6     CG2R61      1      LIG     C6      6      0.001    12.0110   ; qtot -0.345
     7     CG2R67      1      LIG     C7      7      0.012    12.0110   ; qtot -0.333
     8     CG2R61      1      LIG     C8      8     -0.121    12.0110   ; qtot -0.454
     9     CG2R61      1      LIG     C9      9      0.001    12.0110   ; qtot -0.453
    10     CG2R61      1      LIG    C10     10     -0.117    12.0110   ; qtot -0.570
    11     CG2R61      1      LIG    C11     11      0.001    12.0110   ; qtot -0.569
    12     CG2R61      1      LIG    C12     12     -0.121    12.0110   ; qtot -0.690
    13     SG2R50      1      LIG     S1     13     -0.170    32.0600   ; qtot -0.860
    14     CG2R51      1      LIG    C13     14      0.297    12.0110   ; qtot -0.563
    15     CG2R51      1      LIG    C14     15     -0.148    12.0110   ; qtot -0.711
    16     CG2R51      1      LIG    C15     16     -0.258    12.0110   ; qtot -0.969
    17     CG2R51      1      LIG    C16     17     -0.066    12.0110   ; qtot -1.035
    18     SG2R50      1      LIG     S2     18     -0.170    32.0600   ; qtot -1.205
    19     CG2R51      1      LIG    C17     19      0.297    12.0110   ; qtot -0.908
    20     CG2R51      1      LIG    C18     20     -0.148    12.0110   ; qtot -1.056
    21     CG2R51      1      LIG    C19     21     -0.258    12.0110   ; qtot -1.314
    22     CG2R51      1      LIG    C20     22     -0.066    12.0110   ; qtot -1.380
    23     SG2R50      1      LIG     S3     23     -0.170    32.0600   ; qtot -1.550
    24     CG2R51      1      LIG    C21     24     -0.066    12.0110   ; qtot -1.616
    25     CG2R51      1      LIG    C22     25     -0.258    12.0110   ; qtot -1.874
    26     CG2R51      1      LIG    C23     26     -0.148    12.0110   ; qtot -2.022
    27     CG2R51      1      LIG    C24     27      0.297    12.0110   ; qtot -1.725
    28     SG2R50      1      LIG     S4     28     -0.170    32.0600   ; qtot -1.895
    29     CG2R51      1      LIG    C25     29     -0.066    12.0110   ; qtot -1.961
    30     CG2R51      1      LIG    C26     30     -0.258    12.0110   ; qtot -2.219
    31     CG2R51      1      LIG    C27     31     -0.148    12.0110   ; qtot -2.367
    32     CG2R51      1      LIG    C28     32      0.297    12.0110   ; qtot -2.070
    33     CG2DC1      1      LIG    C29     33     -0.178    12.0110   ; qtot -2.248
    34      NG2D1      1      LIG     N1     34     -0.599    14.0070   ; qtot -2.847
    35      CG321      1      LIG    C30     35      0.099    12.0110   ; qtot -2.748
    36      CG321      1      LIG    C31     36      0.099    12.0110   ; qtot -2.649
    37      NG2D1      1      LIG     N2     37     -0.599    14.0070   ; qtot -3.248
    38     CG2DC1      1      LIG    C32     38     -0.178    12.0110   ; qtot -3.426
    39     CG2DC1      1      LIG    C33     39     -0.178    12.0110   ; qtot -3.604
    40      NG2D1      1      LIG     N3     40     -0.599    14.0070   ; qtot -4.203
    41      CG321      1      LIG    C34     41      0.099    12.0110   ; qtot -4.104
    42      CG321      1      LIG    C35     42      0.099    12.0110   ; qtot -4.005
    43      NG2D1      1      LIG     N4     43     -0.599    14.0070   ; qtot -4.604
    44     CG2DC1      1      LIG    C36     44     -0.178    12.0110   ; qtot -4.782
    45      HGR61      1      LIG     H1     45      0.115     1.0080   ; qtot -4.667
    46      HGR61      1      LIG     H2     46      0.115     1.0080   ; qtot -4.552
    47      HGR61      1      LIG     H3     47      0.115     1.0080   ; qtot -4.437
    48      HGR61      1      LIG     H4     48      0.115     1.0080   ; qtot -4.322
    49      HGR61      1      LIG     H5     49      0.115     1.0080   ; qtot -4.207
    50      HGR61      1      LIG     H6     50      0.115     1.0080   ; qtot -4.092
    51      HGR51      1      LIG     H7     51      0.252     1.0080   ; qtot -3.840
    52      HGR51      1      LIG     H8     52      0.171     1.0080   ; qtot -3.669
    53      HGR52      1      LIG     H9     53      0.180     1.0080   ; qtot -3.489
    54      HGR51      1      LIG    H10     54      0.252     1.0080   ; qtot -3.237
    55      HGR51      1      LIG    H11     55      0.171     1.0080   ; qtot -3.066
    56      HGR52      1      LIG    H12     56      0.180     1.0080   ; qtot -2.886
    57      HGR52      1      LIG    H13     57      0.180     1.0080   ; qtot -2.706
    58      HGR51      1      LIG    H14     58      0.171     1.0080   ; qtot -2.535
    59      HGR51      1      LIG    H15     59      0.252     1.0080   ; qtot -2.283
    60      HGR52      1      LIG    H16     60      0.180     1.0080   ; qtot -2.103
    61      HGR51      1      LIG    H17     61      0.171     1.0080   ; qtot -1.932
    62      HGR51      1      LIG    H18     62      0.252     1.0080   ; qtot -1.680
    63       HGA4      1      LIG    H19     63      0.240     1.0080   ; qtot -1.440
    64       HGA2      1      LIG    H20     64      0.090     1.0080   ; qtot -1.350
    65       HGA2      1      LIG    H21     65      0.090     1.0080   ; qtot -1.260
    66       HGA2      1      LIG    H22     66      0.090     1.0080   ; qtot -1.170
    67       HGA2      1      LIG    H23     67      0.090     1.0080   ; qtot -1.080
    68       HGA4      1      LIG    H24     68      0.240     1.0080   ; qtot -0.840
    69       HGA4      1      LIG    H25     69      0.240     1.0080   ; qtot -0.600
    70       HGA2      1      LIG    H26     70      0.090     1.0080   ; qtot -0.510
    71       HGA2      1      LIG    H27     71      0.090     1.0080   ; qtot -0.420
    72       HGA2      1      LIG    H28     72      0.090     1.0080   ; qtot -0.330
    73       HGA2      1      LIG    H29     73      0.090     1.0080   ; qtot -0.240
    74       HGA4      1      LIG    H30     74      0.240     1.0080   ; qtot  0.000

[ bonds ]
; ai	aj	funct	b0	Kb
    1     2     1
    1     6     1
    1    45     1
    2     3     1
    2    35     1
    3     4     1
    3    46     1
    4     5     1
    4     7     1
    5     6     1
    5    47     1
    6    36     1
    7     8     1
    7    12     1
    8     9     1
    8    48     1
    9    10     1
    9    41     1
   10    11     1
   10    49     1
   11    12     1
   11    42     1
   12    50     1
   13    14     1
   13    17     1
   14    15     1
   14    38     1
   15    16     1
   15    51     1
   16    17     1
   16    52     1
   17    53     1
   18    19     1
   18    22     1
   19    20     1
   19    44     1
   20    21     1
   20    54     1
   21    22     1
   21    55     1
   22    56     1
   23    24     1
   23    27     1
   24    25     1
   24    57     1
   25    26     1
   25    58     1
   26    27     1
   26    59     1
   27    39     1
   28    29     1
   28    32     1
   29    30     1
   29    60     1
   30    31     1
   30    61     1
   31    32     1
   31    62     1
   32    33     1
   33    34     1
   33    63     1
   34    35     1
   35    64     1
   35    65     1
   36    37     1
   36    66     1
   36    67     1
   37    38     1
   38    68     1
   39    40     1
   39    69     1
   40    41     1
   41    70     1
   41    71     1
   42    43     1
   42    72     1
   42    73     1
   43    44     1
   44    74     1

[ pairs ]
; ai	aj	funct	c6	c12
    1     4     1 
    1    34     1 
    1    37     1 
    1    46     1 
    1    47     1 
    1    64     1 
    1    65     1 
    1    66     1 
    1    67     1 
    2     5     1 
    2     7     1 
    2    33     1 
    2    36     1 
    3     6     1 
    3     8     1 
    3    12     1 
    3    34     1 
    3    45     1 
    3    47     1 
    3    64     1 
    3    65     1 
    4     9     1 
    4    11     1 
    4    35     1 
    4    36     1 
    4    48     1 
    4    50     1 
    5     8     1 
    5    12     1 
    5    37     1 
    5    45     1 
    5    46     1 
    5    66     1 
    5    67     1 
    6     7     1 
    6    35     1 
    6    38     1 
    7    10     1 
    7    41     1 
    7    42     1 
    7    46     1 
    7    47     1 
    8    11     1 
    8    40     1 
    8    49     1 
    8    50     1 
    8    70     1 
    8    71     1 
    9    12     1 
    9    39     1 
    9    42     1 
   10    40     1 
   10    43     1 
   10    48     1 
   10    50     1 
   10    70     1 
   10    71     1 
   10    72     1 
   10    73     1 
   11    41     1 
   11    44     1 
   12    43     1 
   12    48     1 
   12    49     1 
   12    72     1 
   12    73     1 
   13    37     1 
   13    51     1 
   13    52     1 
   13    68     1 
   14    36     1 
   14    52     1 
   14    53     1 
   15    37     1 
   15    53     1 
   15    68     1 
   16    38     1 
   17    38     1 
   17    51     1 
   18    43     1 
   18    54     1 
   18    55     1 
   18    74     1 
   19    42     1 
   19    55     1 
   19    56     1 
   20    43     1 
   20    56     1 
   20    74     1 
   21    44     1 
   22    44     1 
   22    54     1 
   23    40     1 
   23    58     1 
   23    59     1 
   23    69     1 
   24    39     1 
   24    59     1 
   25    39     1 
   26    40     1 
   26    57     1 
   26    69     1 
   27    41     1 
   27    57     1 
   27    58     1 
   28    34     1 
   28    61     1 
   28    62     1 
   28    63     1 
   29    33     1 
   29    62     1 
   30    33     1 
   31    34     1 
   31    60     1 
   31    63     1 
   32    35     1 
   32    60     1 
   32    61     1 
   33    62     1 
   33    64     1 
   33    65     1 
   35    45     1 
   35    46     1 
   35    63     1 
   36    45     1 
   36    47     1 
   36    68     1 
   38    51     1 
   38    66     1 
   38    67     1 
   39    59     1 
   39    70     1 
   39    71     1 
   41    48     1 
   41    49     1 
   41    69     1 
   42    49     1 
   42    50     1 
   42    74     1 
   44    54     1 
   44    72     1 
   44    73     1 
   51    52     1 
   52    53     1 
   54    55     1 
   55    56     1 
   57    58     1 
   58    59     1 
   60    61     1 
   61    62     1 

[ angles ] 
; ai	aj	ak	funct	th0	cth	S0	Kub
    2     1     6     5
    2     1    45     5
    6     1    45     5
    1     2     3     5
    1     2    35     5
    3     2    35     5
    2     3     4     5
    2     3    46     5
    4     3    46     5
    3     4     5     5
    3     4     7     5
    5     4     7     5
    4     5     6     5
    4     5    47     5
    6     5    47     5
    1     6     5     5
    1     6    36     5
    5     6    36     5
    4     7     8     5
    4     7    12     5
    8     7    12     5
    7     8     9     5
    7     8    48     5
    9     8    48     5
    8     9    10     5
    8     9    41     5
   10     9    41     5
    9    10    11     5
    9    10    49     5
   11    10    49     5
   10    11    12     5
   10    11    42     5
   12    11    42     5
    7    12    11     5
    7    12    50     5
   11    12    50     5
   14    13    17     5
   13    14    15     5
   13    14    38     5
   15    14    38     5
   14    15    16     5
   14    15    51     5
   16    15    51     5
   15    16    17     5
   15    16    52     5
   17    16    52     5
   13    17    16     5
   13    17    53     5
   16    17    53     5
   19    18    22     5
   18    19    20     5
   18    19    44     5
   20    19    44     5
   19    20    21     5
   19    20    54     5
   21    20    54     5
   20    21    22     5
   20    21    55     5
   22    21    55     5
   18    22    21     5
   18    22    56     5
   21    22    56     5
   24    23    27     5
   23    24    25     5
   23    24    57     5
   25    24    57     5
   24    25    26     5
   24    25    58     5
   26    25    58     5
   25    26    27     5
   25    26    59     5
   27    26    59     5
   23    27    26     5
   23    27    39     5
   26    27    39     5
   29    28    32     5
   28    29    30     5
   28    29    60     5
   30    29    60     5
   29    30    31     5
   29    30    61     5
   31    30    61     5
   30    31    32     5
   30    31    62     5
   32    31    62     5
   28    32    31     5
   28    32    33     5
   31    32    33     5
   32    33    34     5
   32    33    63     5
   34    33    63     5
   33    34    35     5
    2    35    34     5
    2    35    64     5
    2    35    65     5
   34    35    64     5
   34    35    65     5
   64    35    65     5
    6    36    37     5
    6    36    66     5
    6    36    67     5
   37    36    66     5
   37    36    67     5
   66    36    67     5
   36    37    38     5
   14    38    37     5
   14    38    68     5
   37    38    68     5
   27    39    40     5
   27    39    69     5
   40    39    69     5
   39    40    41     5
    9    41    40     5
    9    41    70     5
    9    41    71     5
   40    41    70     5
   40    41    71     5
   70    41    71     5
   11    42    43     5
   11    42    72     5
   11    42    73     5
   43    42    72     5
   43    42    73     5
   72    42    73     5
   42    43    44     5
   19    44    43     5
   19    44    74     5
   43    44    74     5

[ dihedrals ]
; ai	aj	ak	al	funct	phi0	cp	mult
    6     1     2    35     9
    2     1     6     5     9
    2     1     6    36     9
    3     2     1     6     9
    3     2     1    45     9
   35     2     1    45     9
    1     2     3     4     9
    1     2     3    46     9
   35     2     3    46     9
    1     2    35    34     9
    1     2    35    64     9
    1     2    35    65     9
    3     2    35    34     9
    3     2    35    64     9
    3     2    35    65     9
    4     3     2    35     9
    2     3     4     5     9
    2     3     4     7     9
    5     4     3    46     9
    7     4     3    46     9
    3     4     5     6     9
    3     4     5    47     9
    7     4     5    47     9
    3     4     7     8     9
    3     4     7    12     9
    5     4     7     8     9
    5     4     7    12     9
    6     5     4     7     9
    4     5     6    36     9
    5     6     1    45     9
   36     6     1    45     9
    1     6     5     4     9
    1     6     5    47     9
   36     6     5    47     9
    1     6    36    37     9
    1     6    36    66     9
    1     6    36    67     9
    5     6    36    37     9
    5     6    36    66     9
    5     6    36    67     9
    4     7     8     9     9
    4     7     8    48     9
   12     7     8    48     9
    4     7    12    11     9
    4     7    12    50     9
    8     7    12    11     9
    8     7    12    50     9
    9     8     7    12     9
    7     8     9    10     9
    7     8     9    41     9
   10     9     8    48     9
   41     9     8    48     9
    8     9    10    11     9
    8     9    10    49     9
   41     9    10    49     9
    8     9    41    40     9
    8     9    41    70     9
    8     9    41    71     9
   10     9    41    40     9
   10     9    41    70     9
   10     9    41    71     9
   11    10     9    41     9
    9    10    11    12     9
    9    10    11    42     9
   12    11    10    49     9
   42    11    10    49     9
   10    11    12    50     9
   42    11    12    50     9
   10    11    42    43     9
   10    11    42    72     9
   10    11    42    73     9
   12    11    42    43     9
   12    11    42    72     9
   12    11    42    73     9
    7    12    11    10     9
    7    12    11    42     9
   17    13    14    38     9
   14    13    17    16     9
   14    13    17    53     9
   15    14    13    17     9
   13    14    15    16     9
   13    14    15    51     9
   38    14    15    51     9
   13    14    38    37     9
   13    14    38    68     9
   15    14    38    37     9
   15    14    38    68     9
   16    15    14    38     9
   14    15    16    17     9
   14    15    16    52     9
   51    15    16    52     9
   17    16    15    51     9
   15    16    17    53     9
   52    16    17    53     9
   13    17    16    15     9
   13    17    16    52     9
   22    18    19    44     9
   19    18    22    21     9
   19    18    22    56     9
   20    19    18    22     9
   18    19    20    21     9
   18    19    20    54     9
   44    19    20    54     9
   18    19    44    43     9
   18    19    44    74     9
   20    19    44    43     9
   20    19    44    74     9
   21    20    19    44     9
   19    20    21    22     9
   19    20    21    55     9
   54    20    21    55     9
   22    21    20    54     9
   20    21    22    56     9
   55    21    22    56     9
   18    22    21    20     9
   18    22    21    55     9
   27    23    24    57     9
   24    23    27    26     9
   24    23    27    39     9
   25    24    23    27     9
   23    24    25    26     9
   23    24    25    58     9
   57    24    25    58     9
   26    25    24    57     9
   24    25    26    27     9
   24    25    26    59     9
   58    25    26    59     9
   27    26    25    58     9
   25    26    27    39     9
   23    27    26    25     9
   23    27    26    59     9
   39    27    26    59     9
   23    27    39    40     9
   23    27    39    69     9
   26    27    39    40     9
   26    27    39    69     9
   32    28    29    60     9
   29    28    32    31     9
   29    28    32    33     9
   30    29    28    32     9
   28    29    30    31     9
   28    29    30    61     9
   60    29    30    61     9
   31    30    29    60     9
   29    30    31    32     9
   29    30    31    62     9
   61    30    31    62     9
   32    31    30    61     9
   30    31    32    33     9
   28    32    31    30     9
   28    32    31    62     9
   33    32    31    62     9
   28    32    33    34     9
   28    32    33    63     9
   31    32    33    34     9
   31    32    33    63     9
   32    33    34    35     9
   35    34    33    63     9
   33    34    35    64     9
   33    34    35    65     9
    2    35    34    33     9
    6    36    37    38     9
   38    37    36    66     9
   38    37    36    67     9
   36    37    38    68     9
   14    38    37    36     9
   27    39    40    41     9
   41    40    39    69     9
   39    40    41    70     9
   39    40    41    71     9
    9    41    40    39     9
   11    42    43    44     9
   44    43    42    72     9
   44    43    42    73     9
   42    43    44    74     9
   19    44    43    42     9

[ dihedrals ]
; ai	aj	ak	al	funct	q0	cq
   33    32    34    63     2
   38    14    37    68     2
   39    27    40    69     2
   44    19    43    74     2

#ifdef POSRES
#include "posre_rec.itp"
#endif


