;;
;; Generated by CHARMM-GUI FF-Converter
;;
;; Correspondance:
;; jul316@lehigh.edu or wonpil@lehigh.edu
;;
;; GROMACS topology file for CARB
;;


[ moleculetype ]
; name	nrexcl
CARB	     3

[ atoms ]
; nr	type	resnr	residu	atom	cgnr	charge	mass
     1     CC3162      1   BGLCNA     C1      1     0.340000    12.0110   ; qtot  0.340
     2       HCA1      1   BGLCNA     H1      2     0.090000     1.0080   ; qtot  0.430
     3      OC311      1   BGLCNA     O1      3    -0.650000    15.9994   ; qtot -0.220
     4       HCP1      1   BGLCNA    HO1      4     0.420000     1.0080   ; qtot  0.200
     5     CC3163      1   BGLCNA     C5      5     0.110000    12.0110   ; qtot  0.310
     6       HCA1      1   BGLCNA     H5      6     0.090000     1.0080   ; qtot  0.400
     7     OC3C61      1   BGLCNA     O5      7    -0.400000    15.9994   ; qtot  0.000
     8     CC3161      1   BGLCNA     C2      8     0.070000    12.0110   ; qtot  0.070
     9       HCA1      1   BGLCNA     H2      9     0.090000     1.0080   ; qtot  0.160
    10      NC2D1      1   BGLCNA      N     10    -0.470000    14.0070   ; qtot -0.310
    11       HCP1      1   BGLCNA     HN     11     0.310000     1.0080   ; qtot  0.000
    12      CC2O1      1   BGLCNA      C     12     0.510000    12.0110   ; qtot  0.510
    13      OC2D1      1   BGLCNA      O     13    -0.510000    15.9994   ; qtot  0.000
    14      CC331      1   BGLCNA     CT     14    -0.270000    12.0110   ; qtot -0.270
    15       HCA3      1   BGLCNA    HT1     15     0.090000     1.0080   ; qtot -0.180
    16       HCA3      1   BGLCNA    HT2     16     0.090000     1.0080   ; qtot -0.090
    17       HCA3      1   BGLCNA    HT3     17     0.090000     1.0080   ; qtot -0.000
    18     CC3161      1   BGLCNA     C3     18     0.140000    12.0110   ; qtot  0.140
    19       HCA1      1   BGLCNA     H3     19     0.090000     1.0080   ; qtot  0.230
    20      OC311      1   BGLCNA     O3     20    -0.650000    15.9994   ; qtot -0.420
    21       HCP1      1   BGLCNA    HO3     21     0.420000     1.0080   ; qtot -0.000
    22     CC3161      1   BGLCNA     C4     22     0.090000    12.0110   ; qtot  0.090
    23       HCA1      1   BGLCNA     H4     23     0.090000     1.0080   ; qtot  0.180
    24      OC301      1   BGLCNA     O4     24    -0.360000    15.9994   ; qtot -0.180
    25      CC321      1   BGLCNA     C6     25     0.050000    12.0110   ; qtot -0.130
    26       HCA2      1   BGLCNA    H61     26     0.090000     1.0080   ; qtot -0.040
    27       HCA2      1   BGLCNA    H62     27     0.090000     1.0080   ; qtot  0.050
    28      OC311      1   BGLCNA     O6     28    -0.650000    15.9994   ; qtot -0.600
    29       HCP1      1   BGLCNA    HO6     29     0.420000     1.0080   ; qtot -0.180
    30     CC3162      2   BGLCNA     C1     30     0.290000    12.0110   ; qtot  0.110
    31       HCA1      2   BGLCNA     H1     31     0.090000     1.0080   ; qtot  0.200
    32     CC3163      2   BGLCNA     C5     32     0.110000    12.0110   ; qtot  0.310
    33       HCA1      2   BGLCNA     H5     33     0.090000     1.0080   ; qtot  0.400
    34     OC3C61      2   BGLCNA     O5     34    -0.400000    15.9994   ; qtot -0.000
    35     CC3161      2   BGLCNA     C2     35     0.070000    12.0110   ; qtot  0.070
    36       HCA1      2   BGLCNA     H2     36     0.090000     1.0080   ; qtot  0.160
    37      NC2D1      2   BGLCNA      N     37    -0.470000    14.0070   ; qtot -0.310
    38       HCP1      2   BGLCNA     HN     38     0.310000     1.0080   ; qtot -0.000
    39      CC2O1      2   BGLCNA      C     39     0.510000    12.0110   ; qtot  0.510
    40      OC2D1      2   BGLCNA      O     40    -0.510000    15.9994   ; qtot  0.000
    41      CC331      2   BGLCNA     CT     41    -0.270000    12.0110   ; qtot -0.270
    42       HCA3      2   BGLCNA    HT1     42     0.090000     1.0080   ; qtot -0.180
    43       HCA3      2   BGLCNA    HT2     43     0.090000     1.0080   ; qtot -0.090
    44       HCA3      2   BGLCNA    HT3     44     0.090000     1.0080   ; qtot -0.000
    45     CC3161      2   BGLCNA     C3     45     0.140000    12.0110   ; qtot  0.140
    46       HCA1      2   BGLCNA     H3     46     0.090000     1.0080   ; qtot  0.230
    47      OC311      2   BGLCNA     O3     47    -0.650000    15.9994   ; qtot -0.420
    48       HCP1      2   BGLCNA    HO3     48     0.420000     1.0080   ; qtot -0.000
    49     CC3161      2   BGLCNA     C4     49     0.090000    12.0110   ; qtot  0.090
    50       HCA1      2   BGLCNA     H4     50     0.090000     1.0080   ; qtot  0.180
    51      OC301      2   BGLCNA     O4     51    -0.360000    15.9994   ; qtot -0.180
    52      CC321      2   BGLCNA     C6     52     0.050000    12.0110   ; qtot -0.130
    53       HCA2      2   BGLCNA    H61     53     0.090000     1.0080   ; qtot -0.040
    54       HCA2      2   BGLCNA    H62     54     0.090000     1.0080   ; qtot  0.050
    55      OC311      2   BGLCNA     O6     55    -0.650000    15.9994   ; qtot -0.600
    56       HCP1      2   BGLCNA    HO6     56     0.420000     1.0080   ; qtot -0.180
    57     CC3162      3     BMAN     C1     57     0.290000    12.0110   ; qtot  0.110
    58       HCA1      3     BMAN     H1     58     0.090000     1.0080   ; qtot  0.200
    59     CC3163      3     BMAN     C5     59     0.110000    12.0110   ; qtot  0.310
    60       HCA1      3     BMAN     H5     60     0.090000     1.0080   ; qtot  0.400
    61     OC3C61      3     BMAN     O5     61    -0.400000    15.9994   ; qtot -0.000
    62     CC3161      3     BMAN     C2     62     0.140000    12.0110   ; qtot  0.140
    63       HCA1      3     BMAN     H2     63     0.090000     1.0080   ; qtot  0.230
    64      OC311      3     BMAN     O2     64    -0.650000    15.9994   ; qtot -0.420
    65       HCP1      3     BMAN    HO2     65     0.420000     1.0080   ; qtot -0.000
    66     CC3161      3     BMAN     C3     66     0.090000    12.0110   ; qtot  0.090
    67       HCA1      3     BMAN     H3     67     0.090000     1.0080   ; qtot  0.180
    68      OC301      3     BMAN     O3     68    -0.360000    15.9994   ; qtot -0.180
    69     CC3161      3     BMAN     C4     69     0.140000    12.0110   ; qtot -0.040
    70       HCA1      3     BMAN     H4     70     0.090000     1.0080   ; qtot  0.050
    71      OC311      3     BMAN     O4     71    -0.650000    15.9994   ; qtot -0.600
    72       HCP1      3     BMAN    HO4     72     0.420000     1.0080   ; qtot -0.180
    73      CC321      3     BMAN     C6     73     0.000000    12.0110   ; qtot -0.180
    74       HCA2      3     BMAN    H61     74     0.090000     1.0080   ; qtot -0.090
    75       HCA2      3     BMAN    H62     75     0.090000     1.0080   ; qtot -0.000
    76      OC301      3     BMAN     O6     76    -0.360000    15.9994   ; qtot -0.360
    77     CC3162      4     AMAN     C1     77     0.290000    12.0110   ; qtot -0.070
    78       HCA1      4     AMAN     H1     78     0.090000     1.0080   ; qtot  0.020
    79     CC3163      4     AMAN     C5     79     0.110000    12.0110   ; qtot  0.130
    80       HCA1      4     AMAN     H5     80     0.090000     1.0080   ; qtot  0.220
    81     OC3C61      4     AMAN     O5     81    -0.400000    15.9994   ; qtot -0.180
    82     CC3161      4     AMAN     C2     82     0.090000    12.0110   ; qtot -0.090
    83       HCA1      4     AMAN     H2     83     0.090000     1.0080   ; qtot -0.000
    84      OC301      4     AMAN     O2     84    -0.360000    15.9994   ; qtot -0.360
    85     CC3161      4     AMAN     C3     85     0.140000    12.0110   ; qtot -0.220
    86       HCA1      4     AMAN     H3     86     0.090000     1.0080   ; qtot -0.130
    87      OC311      4     AMAN     O3     87    -0.650000    15.9994   ; qtot -0.780
    88       HCP1      4     AMAN    HO3     88     0.420000     1.0080   ; qtot -0.360
    89     CC3161      4     AMAN     C4     89     0.140000    12.0110   ; qtot -0.220
    90       HCA1      4     AMAN     H4     90     0.090000     1.0080   ; qtot -0.130
    91      OC311      4     AMAN     O4     91    -0.650000    15.9994   ; qtot -0.780
    92       HCP1      4     AMAN    HO4     92     0.420000     1.0080   ; qtot -0.360
    93      CC321      4     AMAN     C6     93     0.050000    12.0110   ; qtot -0.310
    94       HCA2      4     AMAN    H61     94     0.090000     1.0080   ; qtot -0.220
    95       HCA2      4     AMAN    H62     95     0.090000     1.0080   ; qtot -0.130
    96      OC311      4     AMAN     O6     96    -0.650000    15.9994   ; qtot -0.780
    97       HCP1      4     AMAN    HO6     97     0.420000     1.0080   ; qtot -0.360
    98     CC3162      5     AMAN     C1     98     0.290000    12.0110   ; qtot -0.070
    99       HCA1      5     AMAN     H1     99     0.090000     1.0080   ; qtot  0.020
   100     CC3163      5     AMAN     C5    100     0.110000    12.0110   ; qtot  0.130
   101       HCA1      5     AMAN     H5    101     0.090000     1.0080   ; qtot  0.220
   102     OC3C61      5     AMAN     O5    102    -0.400000    15.9994   ; qtot -0.180
   103     CC3161      5     AMAN     C2    103     0.090000    12.0110   ; qtot -0.090
   104       HCA1      5     AMAN     H2    104     0.090000     1.0080   ; qtot -0.000
   105      OC301      5     AMAN     O2    105    -0.360000    15.9994   ; qtot -0.360
   106     CC3161      5     AMAN     C3    106     0.140000    12.0110   ; qtot -0.220
   107       HCA1      5     AMAN     H3    107     0.090000     1.0080   ; qtot -0.130
   108      OC311      5     AMAN     O3    108    -0.650000    15.9994   ; qtot -0.780
   109       HCP1      5     AMAN    HO3    109     0.420000     1.0080   ; qtot -0.360
   110     CC3161      5     AMAN     C4    110     0.140000    12.0110   ; qtot -0.220
   111       HCA1      5     AMAN     H4    111     0.090000     1.0080   ; qtot -0.130
   112      OC311      5     AMAN     O4    112    -0.650000    15.9994   ; qtot -0.780
   113       HCP1      5     AMAN    HO4    113     0.420000     1.0080   ; qtot -0.360
   114      CC321      5     AMAN     C6    114     0.050000    12.0110   ; qtot -0.310
   115       HCA2      5     AMAN    H61    115     0.090000     1.0080   ; qtot -0.220
   116       HCA2      5     AMAN    H62    116     0.090000     1.0080   ; qtot -0.130
   117      OC311      5     AMAN     O6    117    -0.650000    15.9994   ; qtot -0.780
   118       HCP1      5     AMAN    HO6    118     0.420000     1.0080   ; qtot -0.360
   119     CC3162      6     AMAN     C1    119     0.290000    12.0110   ; qtot -0.070
   120       HCA1      6     AMAN     H1    120     0.090000     1.0080   ; qtot  0.020
   121     CC3163      6     AMAN     C5    121     0.110000    12.0110   ; qtot  0.130
   122       HCA1      6     AMAN     H5    122     0.090000     1.0080   ; qtot  0.220
   123     OC3C61      6     AMAN     O5    123    -0.400000    15.9994   ; qtot -0.180
   124     CC3161      6     AMAN     C2    124     0.140000    12.0110   ; qtot -0.040
   125       HCA1      6     AMAN     H2    125     0.090000     1.0080   ; qtot  0.050
   126      OC311      6     AMAN     O2    126    -0.650000    15.9994   ; qtot -0.600
   127       HCP1      6     AMAN    HO2    127     0.420000     1.0080   ; qtot -0.180
   128     CC3161      6     AMAN     C3    128     0.140000    12.0110   ; qtot -0.040
   129       HCA1      6     AMAN     H3    129     0.090000     1.0080   ; qtot  0.050
   130      OC311      6     AMAN     O3    130    -0.650000    15.9994   ; qtot -0.600
   131       HCP1      6     AMAN    HO3    131     0.420000     1.0080   ; qtot -0.180
   132     CC3161      6     AMAN     C4    132     0.140000    12.0110   ; qtot -0.040
   133       HCA1      6     AMAN     H4    133     0.090000     1.0080   ; qtot  0.050
   134      OC311      6     AMAN     O4    134    -0.650000    15.9994   ; qtot -0.600
   135       HCP1      6     AMAN    HO4    135     0.420000     1.0080   ; qtot -0.180
   136      CC321      6     AMAN     C6    136     0.050000    12.0110   ; qtot -0.130
   137       HCA2      6     AMAN    H61    137     0.090000     1.0080   ; qtot -0.040
   138       HCA2      6     AMAN    H62    138     0.090000     1.0080   ; qtot  0.050
   139      OC311      6     AMAN     O6    139    -0.650000    15.9994   ; qtot -0.600
   140       HCP1      6     AMAN    HO6    140     0.420000     1.0080   ; qtot -0.180
   141     CC3162      7     AMAN     C1    141     0.290000    12.0110   ; qtot  0.110
   142       HCA1      7     AMAN     H1    142     0.090000     1.0080   ; qtot  0.200
   143     CC3163      7     AMAN     C5    143     0.110000    12.0110   ; qtot  0.310
   144       HCA1      7     AMAN     H5    144     0.090000     1.0080   ; qtot  0.400
   145     OC3C61      7     AMAN     O5    145    -0.400000    15.9994   ; qtot -0.000
   146     CC3161      7     AMAN     C2    146     0.140000    12.0110   ; qtot  0.140
   147       HCA1      7     AMAN     H2    147     0.090000     1.0080   ; qtot  0.230
   148      OC311      7     AMAN     O2    148    -0.650000    15.9994   ; qtot -0.420
   149       HCP1      7     AMAN    HO2    149     0.420000     1.0080   ; qtot -0.000
   150     CC3161      7     AMAN     C3    150     0.090000    12.0110   ; qtot  0.090
   151       HCA1      7     AMAN     H3    151     0.090000     1.0080   ; qtot  0.180
   152      OC301      7     AMAN     O3    152    -0.360000    15.9994   ; qtot -0.180
   153     CC3161      7     AMAN     C4    153     0.140000    12.0110   ; qtot -0.040
   154       HCA1      7     AMAN     H4    154     0.090000     1.0080   ; qtot  0.050
   155      OC311      7     AMAN     O4    155    -0.650000    15.9994   ; qtot -0.600
   156       HCP1      7     AMAN    HO4    156     0.420000     1.0080   ; qtot -0.180
   157      CC321      7     AMAN     C6    157     0.000000    12.0110   ; qtot -0.180
   158       HCA2      7     AMAN    H61    158     0.090000     1.0080   ; qtot -0.090
   159       HCA2      7     AMAN    H62    159     0.090000     1.0080   ; qtot -0.000
   160      OC301      7     AMAN     O6    160    -0.360000    15.9994   ; qtot -0.360
   161     CC3162      8     AMAN     C1    161     0.290000    12.0110   ; qtot -0.070
   162       HCA1      8     AMAN     H1    162     0.090000     1.0080   ; qtot  0.020
   163     CC3163      8     AMAN     C5    163     0.110000    12.0110   ; qtot  0.130
   164       HCA1      8     AMAN     H5    164     0.090000     1.0080   ; qtot  0.220
   165     OC3C61      8     AMAN     O5    165    -0.400000    15.9994   ; qtot -0.180
   166     CC3161      8     AMAN     C2    166     0.090000    12.0110   ; qtot -0.090
   167       HCA1      8     AMAN     H2    167     0.090000     1.0080   ; qtot -0.000
   168      OC301      8     AMAN     O2    168    -0.360000    15.9994   ; qtot -0.360
   169     CC3161      8     AMAN     C3    169     0.140000    12.0110   ; qtot -0.220
   170       HCA1      8     AMAN     H3    170     0.090000     1.0080   ; qtot -0.130
   171      OC311      8     AMAN     O3    171    -0.650000    15.9994   ; qtot -0.780
   172       HCP1      8     AMAN    HO3    172     0.420000     1.0080   ; qtot -0.360
   173     CC3161      8     AMAN     C4    173     0.140000    12.0110   ; qtot -0.220
   174       HCA1      8     AMAN     H4    174     0.090000     1.0080   ; qtot -0.130
   175      OC311      8     AMAN     O4    175    -0.650000    15.9994   ; qtot -0.780
   176       HCP1      8     AMAN    HO4    176     0.420000     1.0080   ; qtot -0.360
   177      CC321      8     AMAN     C6    177     0.050000    12.0110   ; qtot -0.310
   178       HCA2      8     AMAN    H61    178     0.090000     1.0080   ; qtot -0.220
   179       HCA2      8     AMAN    H62    179     0.090000     1.0080   ; qtot -0.130
   180      OC311      8     AMAN     O6    180    -0.650000    15.9994   ; qtot -0.780
   181       HCP1      8     AMAN    HO6    181     0.420000     1.0080   ; qtot -0.360
   182     CC3162      9     AMAN     C1    182     0.290000    12.0110   ; qtot -0.070
   183       HCA1      9     AMAN     H1    183     0.090000     1.0080   ; qtot  0.020
   184     CC3163      9     AMAN     C5    184     0.110000    12.0110   ; qtot  0.130
   185       HCA1      9     AMAN     H5    185     0.090000     1.0080   ; qtot  0.220
   186     OC3C61      9     AMAN     O5    186    -0.400000    15.9994   ; qtot -0.180
   187     CC3161      9     AMAN     C2    187     0.140000    12.0110   ; qtot -0.040
   188       HCA1      9     AMAN     H2    188     0.090000     1.0080   ; qtot  0.050
   189      OC311      9     AMAN     O2    189    -0.650000    15.9994   ; qtot -0.600
   190       HCP1      9     AMAN    HO2    190     0.420000     1.0080   ; qtot -0.180
   191     CC3161      9     AMAN     C3    191     0.140000    12.0110   ; qtot -0.040
   192       HCA1      9     AMAN     H3    192     0.090000     1.0080   ; qtot  0.050
   193      OC311      9     AMAN     O3    193    -0.650000    15.9994   ; qtot -0.600
   194       HCP1      9     AMAN    HO3    194     0.420000     1.0080   ; qtot -0.180
   195     CC3161      9     AMAN     C4    195     0.140000    12.0110   ; qtot -0.040
   196       HCA1      9     AMAN     H4    196     0.090000     1.0080   ; qtot  0.050
   197      OC311      9     AMAN     O4    197    -0.650000    15.9994   ; qtot -0.600
   198       HCP1      9     AMAN    HO4    198     0.420000     1.0080   ; qtot -0.180
   199      CC321      9     AMAN     C6    199     0.050000    12.0110   ; qtot -0.130
   200       HCA2      9     AMAN    H61    200     0.090000     1.0080   ; qtot -0.040
   201       HCA2      9     AMAN    H62    201     0.090000     1.0080   ; qtot  0.050
   202      OC311      9     AMAN     O6    202    -0.650000    15.9994   ; qtot -0.600
   203       HCP1      9     AMAN    HO6    203     0.420000     1.0080   ; qtot -0.180
   204     CC3162     10     AMAN     C1    204     0.290000    12.0110   ; qtot  0.110
   205       HCA1     10     AMAN     H1    205     0.090000     1.0080   ; qtot  0.200
   206     CC3163     10     AMAN     C5    206     0.110000    12.0110   ; qtot  0.310
   207       HCA1     10     AMAN     H5    207     0.090000     1.0080   ; qtot  0.400
   208     OC3C61     10     AMAN     O5    208    -0.400000    15.9994   ; qtot -0.000
   209     CC3161     10     AMAN     C2    209     0.090000    12.0110   ; qtot  0.090
   210       HCA1     10     AMAN     H2    210     0.090000     1.0080   ; qtot  0.180
   211      OC301     10     AMAN     O2    211    -0.360000    15.9994   ; qtot -0.180
   212     CC3161     10     AMAN     C3    212     0.140000    12.0110   ; qtot -0.040
   213       HCA1     10     AMAN     H3    213     0.090000     1.0080   ; qtot  0.050
   214      OC311     10     AMAN     O3    214    -0.650000    15.9994   ; qtot -0.600
   215       HCP1     10     AMAN    HO3    215     0.420000     1.0080   ; qtot -0.180
   216     CC3161     10     AMAN     C4    216     0.140000    12.0110   ; qtot -0.040
   217       HCA1     10     AMAN     H4    217     0.090000     1.0080   ; qtot  0.050
   218      OC311     10     AMAN     O4    218    -0.650000    15.9994   ; qtot -0.600
   219       HCP1     10     AMAN    HO4    219     0.420000     1.0080   ; qtot -0.180
   220      CC321     10     AMAN     C6    220     0.050000    12.0110   ; qtot -0.130
   221       HCA2     10     AMAN    H61    221     0.090000     1.0080   ; qtot -0.040
   222       HCA2     10     AMAN    H62    222     0.090000     1.0080   ; qtot  0.050
   223      OC311     10     AMAN     O6    223    -0.650000    15.9994   ; qtot -0.600
   224       HCP1     10     AMAN    HO6    224     0.420000     1.0080   ; qtot -0.180
   225     CC3162     11     AMAN     C1    225     0.290000    12.0110   ; qtot  0.110
   226       HCA1     11     AMAN     H1    226     0.090000     1.0080   ; qtot  0.200
   227     CC3163     11     AMAN     C5    227     0.110000    12.0110   ; qtot  0.310
   228       HCA1     11     AMAN     H5    228     0.090000     1.0080   ; qtot  0.400
   229     OC3C61     11     AMAN     O5    229    -0.400000    15.9994   ; qtot -0.000
   230     CC3161     11     AMAN     C2    230     0.140000    12.0110   ; qtot  0.140
   231       HCA1     11     AMAN     H2    231     0.090000     1.0080   ; qtot  0.230
   232      OC311     11     AMAN     O2    232    -0.650000    15.9994   ; qtot -0.420
   233       HCP1     11     AMAN    HO2    233     0.420000     1.0080   ; qtot -0.000
   234     CC3161     11     AMAN     C3    234     0.140000    12.0110   ; qtot  0.140
   235       HCA1     11     AMAN     H3    235     0.090000     1.0080   ; qtot  0.230
   236      OC311     11     AMAN     O3    236    -0.650000    15.9994   ; qtot -0.420
   237       HCP1     11     AMAN    HO3    237     0.420000     1.0080   ; qtot -0.000
   238     CC3161     11     AMAN     C4    238     0.140000    12.0110   ; qtot  0.140
   239       HCA1     11     AMAN     H4    239     0.090000     1.0080   ; qtot  0.230
   240      OC311     11     AMAN     O4    240    -0.650000    15.9994   ; qtot -0.420
   241       HCP1     11     AMAN    HO4    241     0.420000     1.0080   ; qtot -0.000
   242      CC321     11     AMAN     C6    242     0.050000    12.0110   ; qtot  0.050
   243       HCA2     11     AMAN    H61    243     0.090000     1.0080   ; qtot  0.140
   244       HCA2     11     AMAN    H62    244     0.090000     1.0080   ; qtot  0.230
   245      OC311     11     AMAN     O6    245    -0.650000    15.9994   ; qtot -0.420
   246       HCP1     11     AMAN    HO6    246     0.420000     1.0080   ; qtot -0.000

[ bonds ]
; ai	aj	funct	b0	Kb
    1     2     1
    1     3     1
    1     7     1
    1     8     1
    3     4     1
    5     6     1
    5     7     1
   22     5     1
    5    25     1
    8     9     1
    8    10     1
    8    18     1
   10    11     1
   10    12     1
   12    13     1
   12    14     1
   14    15     1
   14    16     1
   14    17     1
   18    19     1
   18    20     1
   18    22     1
   20    21     1
   22    23     1
   22    24     1
   24    30     1
   25    26     1
   25    27     1
   25    28     1
   28    29     1
   30    31     1
   30    34     1
   30    35     1
   32    33     1
   32    34     1
   49    32     1
   32    52     1
   35    36     1
   35    37     1
   35    45     1
   37    38     1
   37    39     1
   39    40     1
   39    41     1
   41    42     1
   41    43     1
   41    44     1
   45    46     1
   45    47     1
   45    49     1
   47    48     1
   49    50     1
   49    51     1
   51    57     1
   52    53     1
   52    54     1
   52    55     1
   55    56     1
   57    58     1
   57    61     1
   57    62     1
   59    60     1
   59    61     1
   69    59     1
   59    73     1
   62    63     1
   62    64     1
   62    66     1
   64    65     1
   66    67     1
   66    68     1
   66    69     1
   68    77     1
   69    70     1
   69    71     1
   71    72     1
   73    74     1
   73    75     1
   73    76     1
   76   141     1
   77    78     1
   77    81     1
   77    82     1
   79    80     1
   79    81     1
   89    79     1
   79    93     1
   82    83     1
   82    84     1
   82    85     1
   84    98     1
   85    86     1
   85    87     1
   85    89     1
   87    88     1
   89    90     1
   89    91     1
   91    92     1
   93    94     1
   93    95     1
   93    96     1
   96    97     1
   98    99     1
   98   102     1
   98   103     1
  100   101     1
  100   102     1
  110   100     1
  100   114     1
  103   104     1
  103   105     1
  103   106     1
  105   119     1
  106   107     1
  106   108     1
  106   110     1
  108   109     1
  110   111     1
  110   112     1
  112   113     1
  114   115     1
  114   116     1
  114   117     1
  117   118     1
  119   120     1
  119   123     1
  119   124     1
  121   122     1
  121   123     1
  132   121     1
  121   136     1
  124   125     1
  124   126     1
  124   128     1
  126   127     1
  128   129     1
  128   130     1
  128   132     1
  130   131     1
  132   133     1
  132   134     1
  134   135     1
  136   137     1
  136   138     1
  136   139     1
  139   140     1
  141   142     1
  141   145     1
  141   146     1
  143   144     1
  143   145     1
  153   143     1
  143   157     1
  146   147     1
  146   148     1
  146   150     1
  148   149     1
  150   151     1
  150   152     1
  150   153     1
  152   204     1
  153   154     1
  153   155     1
  155   156     1
  157   158     1
  157   159     1
  157   160     1
  160   161     1
  161   162     1
  161   165     1
  161   166     1
  163   164     1
  163   165     1
  173   163     1
  163   177     1
  166   167     1
  166   168     1
  166   169     1
  168   182     1
  169   170     1
  169   171     1
  169   173     1
  171   172     1
  173   174     1
  173   175     1
  175   176     1
  177   178     1
  177   179     1
  177   180     1
  180   181     1
  182   183     1
  182   186     1
  182   187     1
  184   185     1
  184   186     1
  195   184     1
  184   199     1
  187   188     1
  187   189     1
  187   191     1
  189   190     1
  191   192     1
  191   193     1
  191   195     1
  193   194     1
  195   196     1
  195   197     1
  197   198     1
  199   200     1
  199   201     1
  199   202     1
  202   203     1
  204   205     1
  204   208     1
  204   209     1
  206   207     1
  206   208     1
  216   206     1
  206   220     1
  209   210     1
  209   211     1
  209   212     1
  211   225     1
  212   213     1
  212   214     1
  212   216     1
  214   215     1
  216   217     1
  216   218     1
  218   219     1
  220   221     1
  220   222     1
  220   223     1
  223   224     1
  225   226     1
  225   229     1
  225   230     1
  227   228     1
  227   229     1
  238   227     1
  227   242     1
  230   231     1
  230   232     1
  230   234     1
  232   233     1
  234   235     1
  234   236     1
  234   238     1
  236   237     1
  238   239     1
  238   240     1
  240   241     1
  242   243     1
  242   244     1
  242   245     1
  245   246     1

[ pairs ]
; ai	aj	funct	c6	c12 or
; ai	aj	funct	fudgeQQ	q1	q2	c6	c12
    1     6     1
    1    11     1
    1    12     1
    1    19     1
    1    20     1
    1    22     1
    1    25     1
    2     4     1
    2     5     1
    2     9     1
    2    10     1
    2    18     1
    3     5     1
    3     9     1
    3    10     1
    3    18     1
    4     7     1
    4     8     1
    5     8     1
    5    19     1
    5    20     1
    5    29     1
    5    30     1
    6    18     1
    6    23     1
    6    24     1
    6    26     1
    6    27     1
    6    28     1
    7     9     1
    7    10     1
    7    18     1
    7    23     1
    7    24     1
    7    26     1
    7    27     1
    7    28     1
    8    13     1
    8    14     1
    8    21     1
    8    23     1
    8    24     1
    9    11     1
    9    12     1
    9    19     1
    9    20     1
    9    22     1
   10    15     1
   10    16     1
   10    17     1
   10    19     1
   10    20     1
   10    22     1
   11    13     1
   11    14     1
   11    18     1
   12    18     1
   13    15     1
   13    16     1
   13    17     1
   18    25     1
   18    30     1
   19    21     1
   19    23     1
   19    24     1
   20    23     1
   20    24     1
   21    22     1
   22    26     1
   22    27     1
   22    28     1
   22    31     1
   22    34     1
   22    35     1
   23    25     1
   23    30     1
   24    25     1
   24    32     1
   24    36     1
   24    37     1
   24    45     1
   26    29     1
   27    29     1
   30    33     1
   30    38     1
   30    39     1
   30    46     1
   30    47     1
   30    49     1
   30    52     1
   31    32     1
   31    36     1
   31    37     1
   31    45     1
   32    35     1
   32    46     1
   32    47     1
   32    56     1
   32    57     1
   33    45     1
   33    50     1
   33    51     1
   33    53     1
   33    54     1
   33    55     1
   34    36     1
   34    37     1
   34    45     1
   34    50     1
   34    51     1
   34    53     1
   34    54     1
   34    55     1
   35    40     1
   35    41     1
   35    48     1
   35    50     1
   35    51     1
   36    38     1
   36    39     1
   36    46     1
   36    47     1
   36    49     1
   37    42     1
   37    43     1
   37    44     1
   37    46     1
   37    47     1
   37    49     1
   38    40     1
   38    41     1
   38    45     1
   39    45     1
   40    42     1
   40    43     1
   40    44     1
   45    52     1
   45    57     1
   46    48     1
   46    50     1
   46    51     1
   47    50     1
   47    51     1
   48    49     1
   49    53     1
   49    54     1
   49    55     1
   49    58     1
   49    61     1
   49    62     1
   50    52     1
   50    57     1
   51    52     1
   51    59     1
   51    63     1
   51    64     1
   51    66     1
   53    56     1
   54    56     1
   57    60     1
   57    65     1
   57    67     1
   57    68     1
   57    69     1
   57    73     1
   58    59     1
   58    63     1
   58    64     1
   58    66     1
   59    62     1
   59    67     1
   59    68     1
   59    72     1
   59   141     1
   60    66     1
   60    70     1
   60    71     1
   60    74     1
   60    75     1
   60    76     1
   61    63     1
   61    64     1
   61    66     1
   61    70     1
   61    71     1
   61    74     1
   61    75     1
   61    76     1
   62    70     1
   62    71     1
   62    77     1
   63    65     1
   63    67     1
   63    68     1
   63    69     1
   64    67     1
   64    68     1
   64    69     1
   65    66     1
   66    72     1
   66    73     1
   66    78     1
   66    81     1
   66    82     1
   67    70     1
   67    71     1
   67    77     1
   68    70     1
   68    71     1
   68    79     1
   68    83     1
   68    84     1
   68    85     1
   69    74     1
   69    75     1
   69    76     1
   69    77     1
   70    72     1
   70    73     1
   71    73     1
   73   142     1
   73   145     1
   73   146     1
   74   141     1
   75   141     1
   76   143     1
   76   147     1
   76   148     1
   76   150     1
   77    80     1
   77    86     1
   77    87     1
   77    89     1
   77    93     1
   77    98     1
   78    79     1
   78    83     1
   78    84     1
   78    85     1
   79    82     1
   79    86     1
   79    87     1
   79    92     1
   79    97     1
   80    85     1
   80    90     1
   80    91     1
   80    94     1
   80    95     1
   80    96     1
   81    83     1
   81    84     1
   81    85     1
   81    90     1
   81    91     1
   81    94     1
   81    95     1
   81    96     1
   82    88     1
   82    90     1
   82    91     1
   82    99     1
   82   102     1
   82   103     1
   83    86     1
   83    87     1
   83    89     1
   83    98     1
   84    86     1
   84    87     1
   84    89     1
   84   100     1
   84   104     1
   84   105     1
   84   106     1
   85    92     1
   85    93     1
   85    98     1
   86    88     1
   86    90     1
   86    91     1
   87    90     1
   87    91     1
   88    89     1
   89    94     1
   89    95     1
   89    96     1
   90    92     1
   90    93     1
   91    93     1
   94    97     1
   95    97     1
   98   101     1
   98   107     1
   98   108     1
   98   110     1
   98   114     1
   98   119     1
   99   100     1
   99   104     1
   99   105     1
   99   106     1
  100   103     1
  100   107     1
  100   108     1
  100   113     1
  100   118     1
  101   106     1
  101   111     1
  101   112     1
  101   115     1
  101   116     1
  101   117     1
  102   104     1
  102   105     1
  102   106     1
  102   111     1
  102   112     1
  102   115     1
  102   116     1
  102   117     1
  103   109     1
  103   111     1
  103   112     1
  103   120     1
  103   123     1
  103   124     1
  104   107     1
  104   108     1
  104   110     1
  104   119     1
  105   107     1
  105   108     1
  105   110     1
  105   121     1
  105   125     1
  105   126     1
  105   128     1
  106   113     1
  106   114     1
  106   119     1
  107   109     1
  107   111     1
  107   112     1
  108   111     1
  108   112     1
  109   110     1
  110   115     1
  110   116     1
  110   117     1
  111   113     1
  111   114     1
  112   114     1
  115   118     1
  116   118     1
  119   122     1
  119   127     1
  119   129     1
  119   130     1
  119   132     1
  119   136     1
  120   121     1
  120   125     1
  120   126     1
  120   128     1
  121   124     1
  121   129     1
  121   130     1
  121   135     1
  121   140     1
  122   128     1
  122   133     1
  122   134     1
  122   137     1
  122   138     1
  122   139     1
  123   125     1
  123   126     1
  123   128     1
  123   133     1
  123   134     1
  123   137     1
  123   138     1
  123   139     1
  124   131     1
  124   133     1
  124   134     1
  125   127     1
  125   129     1
  125   130     1
  125   132     1
  126   129     1
  126   130     1
  126   132     1
  127   128     1
  128   135     1
  128   136     1
  129   131     1
  129   133     1
  129   134     1
  130   133     1
  130   134     1
  131   132     1
  132   137     1
  132   138     1
  132   139     1
  133   135     1
  133   136     1
  134   136     1
  137   140     1
  138   140     1
  141   144     1
  141   149     1
  141   151     1
  141   152     1
  141   153     1
  141   157     1
  142   143     1
  142   147     1
  142   148     1
  142   150     1
  143   146     1
  143   151     1
  143   152     1
  143   156     1
  143   161     1
  144   150     1
  144   154     1
  144   155     1
  144   158     1
  144   159     1
  144   160     1
  145   147     1
  145   148     1
  145   150     1
  145   154     1
  145   155     1
  145   158     1
  145   159     1
  145   160     1
  146   154     1
  146   155     1
  146   204     1
  147   149     1
  147   151     1
  147   152     1
  147   153     1
  148   151     1
  148   152     1
  148   153     1
  149   150     1
  150   156     1
  150   157     1
  150   205     1
  150   208     1
  150   209     1
  151   154     1
  151   155     1
  151   204     1
  152   154     1
  152   155     1
  152   206     1
  152   210     1
  152   211     1
  152   212     1
  153   158     1
  153   159     1
  153   160     1
  153   204     1
  154   156     1
  154   157     1
  155   157     1
  157   162     1
  157   165     1
  157   166     1
  158   161     1
  159   161     1
  160   163     1
  160   167     1
  160   168     1
  160   169     1
  161   164     1
  161   170     1
  161   171     1
  161   173     1
  161   177     1
  161   182     1
  162   163     1
  162   167     1
  162   168     1
  162   169     1
  163   166     1
  163   170     1
  163   171     1
  163   176     1
  163   181     1
  164   169     1
  164   174     1
  164   175     1
  164   178     1
  164   179     1
  164   180     1
  165   167     1
  165   168     1
  165   169     1
  165   174     1
  165   175     1
  165   178     1
  165   179     1
  165   180     1
  166   172     1
  166   174     1
  166   175     1
  166   183     1
  166   186     1
  166   187     1
  167   170     1
  167   171     1
  167   173     1
  167   182     1
  168   170     1
  168   171     1
  168   173     1
  168   184     1
  168   188     1
  168   189     1
  168   191     1
  169   176     1
  169   177     1
  169   182     1
  170   172     1
  170   174     1
  170   175     1
  171   174     1
  171   175     1
  172   173     1
  173   178     1
  173   179     1
  173   180     1
  174   176     1
  174   177     1
  175   177     1
  178   181     1
  179   181     1
  182   185     1
  182   190     1
  182   192     1
  182   193     1
  182   195     1
  182   199     1
  183   184     1
  183   188     1
  183   189     1
  183   191     1
  184   187     1
  184   192     1
  184   193     1
  184   198     1
  184   203     1
  185   191     1
  185   196     1
  185   197     1
  185   200     1
  185   201     1
  185   202     1
  186   188     1
  186   189     1
  186   191     1
  186   196     1
  186   197     1
  186   200     1
  186   201     1
  186   202     1
  187   194     1
  187   196     1
  187   197     1
  188   190     1
  188   192     1
  188   193     1
  188   195     1
  189   192     1
  189   193     1
  189   195     1
  190   191     1
  191   198     1
  191   199     1
  192   194     1
  192   196     1
  192   197     1
  193   196     1
  193   197     1
  194   195     1
  195   200     1
  195   201     1
  195   202     1
  196   198     1
  196   199     1
  197   199     1
  200   203     1
  201   203     1
  204   207     1
  204   213     1
  204   214     1
  204   216     1
  204   220     1
  204   225     1
  205   206     1
  205   210     1
  205   211     1
  205   212     1
  206   209     1
  206   213     1
  206   214     1
  206   219     1
  206   224     1
  207   212     1
  207   217     1
  207   218     1
  207   221     1
  207   222     1
  207   223     1
  208   210     1
  208   211     1
  208   212     1
  208   217     1
  208   218     1
  208   221     1
  208   222     1
  208   223     1
  209   215     1
  209   217     1
  209   218     1
  209   226     1
  209   229     1
  209   230     1
  210   213     1
  210   214     1
  210   216     1
  210   225     1
  211   213     1
  211   214     1
  211   216     1
  211   227     1
  211   231     1
  211   232     1
  211   234     1
  212   219     1
  212   220     1
  212   225     1
  213   215     1
  213   217     1
  213   218     1
  214   217     1
  214   218     1
  215   216     1
  216   221     1
  216   222     1
  216   223     1
  217   219     1
  217   220     1
  218   220     1
  221   224     1
  222   224     1
  225   228     1
  225   233     1
  225   235     1
  225   236     1
  225   238     1
  225   242     1
  226   227     1
  226   231     1
  226   232     1
  226   234     1
  227   230     1
  227   235     1
  227   236     1
  227   241     1
  227   246     1
  228   234     1
  228   239     1
  228   240     1
  228   243     1
  228   244     1
  228   245     1
  229   231     1
  229   232     1
  229   234     1
  229   239     1
  229   240     1
  229   243     1
  229   244     1
  229   245     1
  230   237     1
  230   239     1
  230   240     1
  231   233     1
  231   235     1
  231   236     1
  231   238     1
  232   235     1
  232   236     1
  232   238     1
  233   234     1
  234   241     1
  234   242     1
  235   237     1
  235   239     1
  235   240     1
  236   239     1
  236   240     1
  237   238     1
  238   243     1
  238   244     1
  238   245     1
  239   241     1
  239   242     1
  240   242     1
  243   246     1
  244   246     1

[ angles ] 
; ai	aj	ak	funct	th0	cth	S0	Kub
    2     1     3     5
    2     1     7     5
    2     1     8     5
    3     1     7     5
    3     1     8     5
    7     1     8     5
    1     3     4     5
    6     5     7     5
    6     5    22     5
    6     5    25     5
    7     5    22     5
    7     5    25     5
   22     5    25     5
    1     7     5     5
    1     8     9     5
    1     8    10     5
    1     8    18     5
    9     8    10     5
    9     8    18     5
   10     8    18     5
    8    10    11     5
    8    10    12     5
   11    10    12     5
   10    12    13     5
   10    12    14     5
   13    12    14     5
   12    14    15     5
   12    14    16     5
   12    14    17     5
   15    14    16     5
   15    14    17     5
   16    14    17     5
    8    18    19     5
    8    18    20     5
    8    18    22     5
   19    18    20     5
   19    18    22     5
   20    18    22     5
   18    20    21     5
    5    22    18     5
    5    22    23     5
    5    22    24     5
   18    22    23     5
   18    22    24     5
   23    22    24     5
   22    24    30     5
    5    25    26     5
    5    25    27     5
    5    25    28     5
   26    25    27     5
   26    25    28     5
   27    25    28     5
   25    28    29     5
   24    30    31     5
   24    30    34     5
   24    30    35     5
   31    30    34     5
   31    30    35     5
   34    30    35     5
   33    32    34     5
   33    32    49     5
   33    32    52     5
   34    32    49     5
   34    32    52     5
   49    32    52     5
   30    34    32     5
   30    35    36     5
   30    35    37     5
   30    35    45     5
   36    35    37     5
   36    35    45     5
   37    35    45     5
   35    37    38     5
   35    37    39     5
   38    37    39     5
   37    39    40     5
   37    39    41     5
   40    39    41     5
   39    41    42     5
   39    41    43     5
   39    41    44     5
   42    41    43     5
   42    41    44     5
   43    41    44     5
   35    45    46     5
   35    45    47     5
   35    45    49     5
   46    45    47     5
   46    45    49     5
   47    45    49     5
   45    47    48     5
   32    49    45     5
   32    49    50     5
   32    49    51     5
   45    49    50     5
   45    49    51     5
   50    49    51     5
   49    51    57     5
   32    52    53     5
   32    52    54     5
   32    52    55     5
   53    52    54     5
   53    52    55     5
   54    52    55     5
   52    55    56     5
   51    57    58     5
   51    57    61     5
   51    57    62     5
   58    57    61     5
   58    57    62     5
   61    57    62     5
   60    59    61     5
   60    59    69     5
   60    59    73     5
   61    59    69     5
   61    59    73     5
   69    59    73     5
   57    61    59     5
   57    62    63     5
   57    62    64     5
   57    62    66     5
   63    62    64     5
   63    62    66     5
   64    62    66     5
   62    64    65     5
   62    66    67     5
   62    66    68     5
   62    66    69     5
   67    66    68     5
   67    66    69     5
   68    66    69     5
   66    68    77     5
   59    69    66     5
   59    69    70     5
   59    69    71     5
   66    69    70     5
   66    69    71     5
   70    69    71     5
   69    71    72     5
   59    73    74     5
   59    73    75     5
   59    73    76     5
   74    73    75     5
   74    73    76     5
   75    73    76     5
   73    76   141     5
   68    77    78     5
   68    77    81     5
   68    77    82     5
   78    77    81     5
   78    77    82     5
   81    77    82     5
   80    79    81     5
   80    79    89     5
   80    79    93     5
   81    79    89     5
   81    79    93     5
   89    79    93     5
   77    81    79     5
   77    82    83     5
   77    82    84     5
   77    82    85     5
   83    82    84     5
   83    82    85     5
   84    82    85     5
   82    84    98     5
   82    85    86     5
   82    85    87     5
   82    85    89     5
   86    85    87     5
   86    85    89     5
   87    85    89     5
   85    87    88     5
   79    89    85     5
   79    89    90     5
   79    89    91     5
   85    89    90     5
   85    89    91     5
   90    89    91     5
   89    91    92     5
   79    93    94     5
   79    93    95     5
   79    93    96     5
   94    93    95     5
   94    93    96     5
   95    93    96     5
   93    96    97     5
   84    98    99     5
   84    98   102     5
   84    98   103     5
   99    98   102     5
   99    98   103     5
  102    98   103     5
  101   100   102     5
  101   100   110     5
  101   100   114     5
  102   100   110     5
  102   100   114     5
  110   100   114     5
   98   102   100     5
   98   103   104     5
   98   103   105     5
   98   103   106     5
  104   103   105     5
  104   103   106     5
  105   103   106     5
  103   105   119     5
  103   106   107     5
  103   106   108     5
  103   106   110     5
  107   106   108     5
  107   106   110     5
  108   106   110     5
  106   108   109     5
  100   110   106     5
  100   110   111     5
  100   110   112     5
  106   110   111     5
  106   110   112     5
  111   110   112     5
  110   112   113     5
  100   114   115     5
  100   114   116     5
  100   114   117     5
  115   114   116     5
  115   114   117     5
  116   114   117     5
  114   117   118     5
  105   119   120     5
  105   119   123     5
  105   119   124     5
  120   119   123     5
  120   119   124     5
  123   119   124     5
  122   121   123     5
  122   121   132     5
  122   121   136     5
  123   121   132     5
  123   121   136     5
  132   121   136     5
  119   123   121     5
  119   124   125     5
  119   124   126     5
  119   124   128     5
  125   124   126     5
  125   124   128     5
  126   124   128     5
  124   126   127     5
  124   128   129     5
  124   128   130     5
  124   128   132     5
  129   128   130     5
  129   128   132     5
  130   128   132     5
  128   130   131     5
  121   132   128     5
  121   132   133     5
  121   132   134     5
  128   132   133     5
  128   132   134     5
  133   132   134     5
  132   134   135     5
  121   136   137     5
  121   136   138     5
  121   136   139     5
  137   136   138     5
  137   136   139     5
  138   136   139     5
  136   139   140     5
   76   141   142     5
   76   141   145     5
   76   141   146     5
  142   141   145     5
  142   141   146     5
  145   141   146     5
  144   143   145     5
  144   143   153     5
  144   143   157     5
  145   143   153     5
  145   143   157     5
  153   143   157     5
  141   145   143     5
  141   146   147     5
  141   146   148     5
  141   146   150     5
  147   146   148     5
  147   146   150     5
  148   146   150     5
  146   148   149     5
  146   150   151     5
  146   150   152     5
  146   150   153     5
  151   150   152     5
  151   150   153     5
  152   150   153     5
  150   152   204     5
  143   153   150     5
  143   153   154     5
  143   153   155     5
  150   153   154     5
  150   153   155     5
  154   153   155     5
  153   155   156     5
  143   157   158     5
  143   157   159     5
  143   157   160     5
  158   157   159     5
  158   157   160     5
  159   157   160     5
  157   160   161     5
  160   161   162     5
  160   161   165     5
  160   161   166     5
  162   161   165     5
  162   161   166     5
  165   161   166     5
  164   163   165     5
  164   163   173     5
  164   163   177     5
  165   163   173     5
  165   163   177     5
  173   163   177     5
  161   165   163     5
  161   166   167     5
  161   166   168     5
  161   166   169     5
  167   166   168     5
  167   166   169     5
  168   166   169     5
  166   168   182     5
  166   169   170     5
  166   169   171     5
  166   169   173     5
  170   169   171     5
  170   169   173     5
  171   169   173     5
  169   171   172     5
  163   173   169     5
  163   173   174     5
  163   173   175     5
  169   173   174     5
  169   173   175     5
  174   173   175     5
  173   175   176     5
  163   177   178     5
  163   177   179     5
  163   177   180     5
  178   177   179     5
  178   177   180     5
  179   177   180     5
  177   180   181     5
  168   182   183     5
  168   182   186     5
  168   182   187     5
  183   182   186     5
  183   182   187     5
  186   182   187     5
  185   184   186     5
  185   184   195     5
  185   184   199     5
  186   184   195     5
  186   184   199     5
  195   184   199     5
  182   186   184     5
  182   187   188     5
  182   187   189     5
  182   187   191     5
  188   187   189     5
  188   187   191     5
  189   187   191     5
  187   189   190     5
  187   191   192     5
  187   191   193     5
  187   191   195     5
  192   191   193     5
  192   191   195     5
  193   191   195     5
  191   193   194     5
  184   195   191     5
  184   195   196     5
  184   195   197     5
  191   195   196     5
  191   195   197     5
  196   195   197     5
  195   197   198     5
  184   199   200     5
  184   199   201     5
  184   199   202     5
  200   199   201     5
  200   199   202     5
  201   199   202     5
  199   202   203     5
  152   204   205     5
  152   204   208     5
  152   204   209     5
  205   204   208     5
  205   204   209     5
  208   204   209     5
  207   206   208     5
  207   206   216     5
  207   206   220     5
  208   206   216     5
  208   206   220     5
  216   206   220     5
  204   208   206     5
  204   209   210     5
  204   209   211     5
  204   209   212     5
  210   209   211     5
  210   209   212     5
  211   209   212     5
  209   211   225     5
  209   212   213     5
  209   212   214     5
  209   212   216     5
  213   212   214     5
  213   212   216     5
  214   212   216     5
  212   214   215     5
  206   216   212     5
  206   216   217     5
  206   216   218     5
  212   216   217     5
  212   216   218     5
  217   216   218     5
  216   218   219     5
  206   220   221     5
  206   220   222     5
  206   220   223     5
  221   220   222     5
  221   220   223     5
  222   220   223     5
  220   223   224     5
  211   225   226     5
  211   225   229     5
  211   225   230     5
  226   225   229     5
  226   225   230     5
  229   225   230     5
  228   227   229     5
  228   227   238     5
  228   227   242     5
  229   227   238     5
  229   227   242     5
  238   227   242     5
  225   229   227     5
  225   230   231     5
  225   230   232     5
  225   230   234     5
  231   230   232     5
  231   230   234     5
  232   230   234     5
  230   232   233     5
  230   234   235     5
  230   234   236     5
  230   234   238     5
  235   234   236     5
  235   234   238     5
  236   234   238     5
  234   236   237     5
  227   238   234     5
  227   238   239     5
  227   238   240     5
  234   238   239     5
  234   238   240     5
  239   238   240     5
  238   240   241     5
  227   242   243     5
  227   242   244     5
  227   242   245     5
  243   242   244     5
  243   242   245     5
  244   242   245     5
  242   245   246     5

[ dihedrals ]
; ai	aj	ak	al	funct	phi0	cp	mult
    2     1     3     4     9
    2     1     7     5     9
    3     1     7     5     9
    2     1     8     9     9
    2     1     8    10     9
    2     1     8    18     9
    3     1     8     9     9
    3     1     8    10     9
    3     1     8    18     9
    7     1     8     9     9
    7     1     8    10     9
    7     1     8    18     9
    4     3     1     7     9
    4     3     1     8     9
    6     5    22    18     9
    6     5    22    23     9
    6     5    22    24     9
    7     5    22    18     9
    7     5    22    23     9
    7     5    22    24     9
    6     5    25    26     9
    6     5    25    27     9
    6     5    25    28     9
    7     5    25    26     9
    7     5    25    27     9
    7     5    25    28     9
   22     5    25    26     9
   22     5    25    27     9
   22     5    25    28     9
    5     7     1     8     9
    1     7     5     6     9
    1     7     5    22     9
    1     7     5    25     9
    1     8    10    11     9
    1     8    10    12     9
    9     8    10    11     9
    9     8    10    12     9
    1     8    18    19     9
    1     8    18    20     9
    1     8    18    22     9
    9     8    18    19     9
    9     8    18    20     9
    9     8    18    22     9
   10     8    18    19     9
   10     8    18    20     9
   10     8    18    22     9
   11    10     8    18     9
   12    10     8    18     9
    8    10    12    13     9
    8    10    12    14     9
   11    10    12    13     9
   11    10    12    14     9
   10    12    14    15     9
   10    12    14    16     9
   10    12    14    17     9
   13    12    14    15     9
   13    12    14    16     9
   13    12    14    17     9
    8    18    20    21     9
   19    18    20    21     9
    8    18    22    23     9
    8    18    22    24     9
   19    18    22    23     9
   19    18    22    24     9
   20    18    22    23     9
   20    18    22    24     9
   21    20    18    22     9
   18    22     5    25     9
   23    22     5    25     9
   24    22     5    25     9
    5    22    18     8     9
    5    22    18    19     9
    5    22    18    20     9
    5    22    24    30     9
   18    22    24    30     9
   23    22    24    30     9
   22    24    30    31     9
   22    24    30    34     9
   22    24    30    35     9
    5    25    28    29     9
   26    25    28    29     9
   27    25    28    29     9
   24    30    34    32     9
   31    30    34    32     9
   24    30    35    36     9
   24    30    35    37     9
   24    30    35    45     9
   31    30    35    36     9
   31    30    35    37     9
   31    30    35    45     9
   34    30    35    36     9
   34    30    35    37     9
   34    30    35    45     9
   33    32    49    45     9
   33    32    49    50     9
   33    32    49    51     9
   34    32    49    45     9
   34    32    49    50     9
   34    32    49    51     9
   33    32    52    53     9
   33    32    52    54     9
   33    32    52    55     9
   34    32    52    53     9
   34    32    52    54     9
   34    32    52    55     9
   49    32    52    53     9
   49    32    52    54     9
   49    32    52    55     9
   32    34    30    35     9
   30    34    32    33     9
   30    34    32    49     9
   30    34    32    52     9
   30    35    37    38     9
   30    35    37    39     9
   36    35    37    38     9
   36    35    37    39     9
   30    35    45    46     9
   30    35    45    47     9
   30    35    45    49     9
   36    35    45    46     9
   36    35    45    47     9
   36    35    45    49     9
   37    35    45    46     9
   37    35    45    47     9
   37    35    45    49     9
   38    37    35    45     9
   39    37    35    45     9
   35    37    39    40     9
   35    37    39    41     9
   38    37    39    40     9
   38    37    39    41     9
   37    39    41    42     9
   37    39    41    43     9
   37    39    41    44     9
   40    39    41    42     9
   40    39    41    43     9
   40    39    41    44     9
   35    45    47    48     9
   46    45    47    48     9
   35    45    49    50     9
   35    45    49    51     9
   46    45    49    50     9
   46    45    49    51     9
   47    45    49    50     9
   47    45    49    51     9
   48    47    45    49     9
   45    49    32    52     9
   50    49    32    52     9
   51    49    32    52     9
   32    49    45    35     9
   32    49    45    46     9
   32    49    45    47     9
   32    49    51    57     9
   45    49    51    57     9
   50    49    51    57     9
   49    51    57    58     9
   49    51    57    61     9
   49    51    57    62     9
   32    52    55    56     9
   53    52    55    56     9
   54    52    55    56     9
   51    57    61    59     9
   58    57    61    59     9
   51    57    62    63     9
   51    57    62    64     9
   51    57    62    66     9
   58    57    62    63     9
   58    57    62    64     9
   58    57    62    66     9
   61    57    62    63     9
   61    57    62    64     9
   61    57    62    66     9
   60    59    69    66     9
   60    59    69    70     9
   60    59    69    71     9
   61    59    69    66     9
   61    59    69    70     9
   61    59    69    71     9
   60    59    73    74     9
   60    59    73    75     9
   60    59    73    76     9
   61    59    73    74     9
   61    59    73    75     9
   61    59    73    76     9
   69    59    73    74     9
   69    59    73    75     9
   69    59    73    76     9
   59    61    57    62     9
   57    61    59    60     9
   57    61    59    69     9
   57    61    59    73     9
   57    62    64    65     9
   63    62    64    65     9
   57    62    66    67     9
   57    62    66    68     9
   57    62    66    69     9
   63    62    66    67     9
   63    62    66    68     9
   63    62    66    69     9
   64    62    66    67     9
   64    62    66    68     9
   64    62    66    69     9
   65    64    62    66     9
   62    66    68    77     9
   67    66    68    77     9
   69    66    68    77     9
   62    66    69    70     9
   62    66    69    71     9
   67    66    69    70     9
   67    66    69    71     9
   68    66    69    70     9
   68    66    69    71     9
   66    68    77    78     9
   66    68    77    81     9
   66    68    77    82     9
   66    69    59    73     9
   70    69    59    73     9
   71    69    59    73     9
   59    69    66    62     9
   59    69    66    67     9
   59    69    66    68     9
   59    69    71    72     9
   66    69    71    72     9
   70    69    71    72     9
   59    73    76   141     9
   74    73    76   141     9
   75    73    76   141     9
   73    76   141   142     9
   73    76   141   145     9
   73    76   141   146     9
   68    77    81    79     9
   78    77    81    79     9
   68    77    82    83     9
   68    77    82    84     9
   68    77    82    85     9
   78    77    82    83     9
   78    77    82    84     9
   78    77    82    85     9
   81    77    82    83     9
   81    77    82    84     9
   81    77    82    85     9
   80    79    89    85     9
   80    79    89    90     9
   80    79    89    91     9
   81    79    89    85     9
   81    79    89    90     9
   81    79    89    91     9
   80    79    93    94     9
   80    79    93    95     9
   80    79    93    96     9
   81    79    93    94     9
   81    79    93    95     9
   81    79    93    96     9
   89    79    93    94     9
   89    79    93    95     9
   89    79    93    96     9
   79    81    77    82     9
   77    81    79    80     9
   77    81    79    89     9
   77    81    79    93     9
   77    82    84    98     9
   83    82    84    98     9
   85    82    84    98     9
   77    82    85    86     9
   77    82    85    87     9
   77    82    85    89     9
   83    82    85    86     9
   83    82    85    87     9
   83    82    85    89     9
   84    82    85    86     9
   84    82    85    87     9
   84    82    85    89     9
   82    84    98    99     9
   82    84    98   102     9
   82    84    98   103     9
   82    85    87    88     9
   86    85    87    88     9
   82    85    89    90     9
   82    85    89    91     9
   86    85    89    90     9
   86    85    89    91     9
   87    85    89    90     9
   87    85    89    91     9
   88    87    85    89     9
   85    89    79    93     9
   90    89    79    93     9
   91    89    79    93     9
   79    89    85    82     9
   79    89    85    86     9
   79    89    85    87     9
   79    89    91    92     9
   85    89    91    92     9
   90    89    91    92     9
   79    93    96    97     9
   94    93    96    97     9
   95    93    96    97     9
   84    98   102   100     9
   99    98   102   100     9
   84    98   103   104     9
   84    98   103   105     9
   84    98   103   106     9
   99    98   103   104     9
   99    98   103   105     9
   99    98   103   106     9
  102    98   103   104     9
  102    98   103   105     9
  102    98   103   106     9
  101   100   110   106     9
  101   100   110   111     9
  101   100   110   112     9
  102   100   110   106     9
  102   100   110   111     9
  102   100   110   112     9
  101   100   114   115     9
  101   100   114   116     9
  101   100   114   117     9
  102   100   114   115     9
  102   100   114   116     9
  102   100   114   117     9
  110   100   114   115     9
  110   100   114   116     9
  110   100   114   117     9
  100   102    98   103     9
   98   102   100   101     9
   98   102   100   110     9
   98   102   100   114     9
   98   103   105   119     9
  104   103   105   119     9
  106   103   105   119     9
   98   103   106   107     9
   98   103   106   108     9
   98   103   106   110     9
  104   103   106   107     9
  104   103   106   108     9
  104   103   106   110     9
  105   103   106   107     9
  105   103   106   108     9
  105   103   106   110     9
  103   105   119   120     9
  103   105   119   123     9
  103   105   119   124     9
  103   106   108   109     9
  107   106   108   109     9
  103   106   110   111     9
  103   106   110   112     9
  107   106   110   111     9
  107   106   110   112     9
  108   106   110   111     9
  108   106   110   112     9
  109   108   106   110     9
  106   110   100   114     9
  111   110   100   114     9
  112   110   100   114     9
  100   110   106   103     9
  100   110   106   107     9
  100   110   106   108     9
  100   110   112   113     9
  106   110   112   113     9
  111   110   112   113     9
  100   114   117   118     9
  115   114   117   118     9
  116   114   117   118     9
  105   119   123   121     9
  120   119   123   121     9
  105   119   124   125     9
  105   119   124   126     9
  105   119   124   128     9
  120   119   124   125     9
  120   119   124   126     9
  120   119   124   128     9
  123   119   124   125     9
  123   119   124   126     9
  123   119   124   128     9
  122   121   132   128     9
  122   121   132   133     9
  122   121   132   134     9
  123   121   132   128     9
  123   121   132   133     9
  123   121   132   134     9
  122   121   136   137     9
  122   121   136   138     9
  122   121   136   139     9
  123   121   136   137     9
  123   121   136   138     9
  123   121   136   139     9
  132   121   136   137     9
  132   121   136   138     9
  132   121   136   139     9
  121   123   119   124     9
  119   123   121   122     9
  119   123   121   132     9
  119   123   121   136     9
  119   124   126   127     9
  125   124   126   127     9
  119   124   128   129     9
  119   124   128   130     9
  119   124   128   132     9
  125   124   128   129     9
  125   124   128   130     9
  125   124   128   132     9
  126   124   128   129     9
  126   124   128   130     9
  126   124   128   132     9
  127   126   124   128     9
  124   128   130   131     9
  129   128   130   131     9
  124   128   132   133     9
  124   128   132   134     9
  129   128   132   133     9
  129   128   132   134     9
  130   128   132   133     9
  130   128   132   134     9
  131   130   128   132     9
  128   132   121   136     9
  133   132   121   136     9
  134   132   121   136     9
  121   132   128   124     9
  121   132   128   129     9
  121   132   128   130     9
  121   132   134   135     9
  128   132   134   135     9
  133   132   134   135     9
  121   136   139   140     9
  137   136   139   140     9
  138   136   139   140     9
   76   141   145   143     9
  142   141   145   143     9
   76   141   146   147     9
   76   141   146   148     9
   76   141   146   150     9
  142   141   146   147     9
  142   141   146   148     9
  142   141   146   150     9
  145   141   146   147     9
  145   141   146   148     9
  145   141   146   150     9
  144   143   153   150     9
  144   143   153   154     9
  144   143   153   155     9
  145   143   153   150     9
  145   143   153   154     9
  145   143   153   155     9
  144   143   157   158     9
  144   143   157   159     9
  144   143   157   160     9
  145   143   157   158     9
  145   143   157   159     9
  145   143   157   160     9
  153   143   157   158     9
  153   143   157   159     9
  153   143   157   160     9
  143   145   141   146     9
  141   145   143   144     9
  141   145   143   153     9
  141   145   143   157     9
  141   146   148   149     9
  147   146   148   149     9
  141   146   150   151     9
  141   146   150   152     9
  141   146   150   153     9
  147   146   150   151     9
  147   146   150   152     9
  147   146   150   153     9
  148   146   150   151     9
  148   146   150   152     9
  148   146   150   153     9
  149   148   146   150     9
  146   150   152   204     9
  151   150   152   204     9
  153   150   152   204     9
  146   150   153   154     9
  146   150   153   155     9
  151   150   153   154     9
  151   150   153   155     9
  152   150   153   154     9
  152   150   153   155     9
  150   152   204   205     9
  150   152   204   208     9
  150   152   204   209     9
  150   153   143   157     9
  154   153   143   157     9
  155   153   143   157     9
  143   153   150   146     9
  143   153   150   151     9
  143   153   150   152     9
  143   153   155   156     9
  150   153   155   156     9
  154   153   155   156     9
  143   157   160   161     9
  158   157   160   161     9
  159   157   160   161     9
  157   160   161   162     9
  157   160   161   165     9
  157   160   161   166     9
  160   161   165   163     9
  162   161   165   163     9
  160   161   166   167     9
  160   161   166   168     9
  160   161   166   169     9
  162   161   166   167     9
  162   161   166   168     9
  162   161   166   169     9
  165   161   166   167     9
  165   161   166   168     9
  165   161   166   169     9
  164   163   173   169     9
  164   163   173   174     9
  164   163   173   175     9
  165   163   173   169     9
  165   163   173   174     9
  165   163   173   175     9
  164   163   177   178     9
  164   163   177   179     9
  164   163   177   180     9
  165   163   177   178     9
  165   163   177   179     9
  165   163   177   180     9
  173   163   177   178     9
  173   163   177   179     9
  173   163   177   180     9
  163   165   161   166     9
  161   165   163   164     9
  161   165   163   173     9
  161   165   163   177     9
  161   166   168   182     9
  167   166   168   182     9
  169   166   168   182     9
  161   166   169   170     9
  161   166   169   171     9
  161   166   169   173     9
  167   166   169   170     9
  167   166   169   171     9
  167   166   169   173     9
  168   166   169   170     9
  168   166   169   171     9
  168   166   169   173     9
  166   168   182   183     9
  166   168   182   186     9
  166   168   182   187     9
  166   169   171   172     9
  170   169   171   172     9
  166   169   173   174     9
  166   169   173   175     9
  170   169   173   174     9
  170   169   173   175     9
  171   169   173   174     9
  171   169   173   175     9
  172   171   169   173     9
  169   173   163   177     9
  174   173   163   177     9
  175   173   163   177     9
  163   173   169   166     9
  163   173   169   170     9
  163   173   169   171     9
  163   173   175   176     9
  169   173   175   176     9
  174   173   175   176     9
  163   177   180   181     9
  178   177   180   181     9
  179   177   180   181     9
  168   182   186   184     9
  183   182   186   184     9
  168   182   187   188     9
  168   182   187   189     9
  168   182   187   191     9
  183   182   187   188     9
  183   182   187   189     9
  183   182   187   191     9
  186   182   187   188     9
  186   182   187   189     9
  186   182   187   191     9
  185   184   195   191     9
  185   184   195   196     9
  185   184   195   197     9
  186   184   195   191     9
  186   184   195   196     9
  186   184   195   197     9
  185   184   199   200     9
  185   184   199   201     9
  185   184   199   202     9
  186   184   199   200     9
  186   184   199   201     9
  186   184   199   202     9
  195   184   199   200     9
  195   184   199   201     9
  195   184   199   202     9
  184   186   182   187     9
  182   186   184   185     9
  182   186   184   195     9
  182   186   184   199     9
  182   187   189   190     9
  188   187   189   190     9
  182   187   191   192     9
  182   187   191   193     9
  182   187   191   195     9
  188   187   191   192     9
  188   187   191   193     9
  188   187   191   195     9
  189   187   191   192     9
  189   187   191   193     9
  189   187   191   195     9
  190   189   187   191     9
  187   191   193   194     9
  192   191   193   194     9
  187   191   195   196     9
  187   191   195   197     9
  192   191   195   196     9
  192   191   195   197     9
  193   191   195   196     9
  193   191   195   197     9
  194   193   191   195     9
  191   195   184   199     9
  196   195   184   199     9
  197   195   184   199     9
  184   195   191   187     9
  184   195   191   192     9
  184   195   191   193     9
  184   195   197   198     9
  191   195   197   198     9
  196   195   197   198     9
  184   199   202   203     9
  200   199   202   203     9
  201   199   202   203     9
  152   204   208   206     9
  205   204   208   206     9
  152   204   209   210     9
  152   204   209   211     9
  152   204   209   212     9
  205   204   209   210     9
  205   204   209   211     9
  205   204   209   212     9
  208   204   209   210     9
  208   204   209   211     9
  208   204   209   212     9
  207   206   216   212     9
  207   206   216   217     9
  207   206   216   218     9
  208   206   216   212     9
  208   206   216   217     9
  208   206   216   218     9
  207   206   220   221     9
  207   206   220   222     9
  207   206   220   223     9
  208   206   220   221     9
  208   206   220   222     9
  208   206   220   223     9
  216   206   220   221     9
  216   206   220   222     9
  216   206   220   223     9
  206   208   204   209     9
  204   208   206   207     9
  204   208   206   216     9
  204   208   206   220     9
  204   209   211   225     9
  210   209   211   225     9
  212   209   211   225     9
  204   209   212   213     9
  204   209   212   214     9
  204   209   212   216     9
  210   209   212   213     9
  210   209   212   214     9
  210   209   212   216     9
  211   209   212   213     9
  211   209   212   214     9
  211   209   212   216     9
  209   211   225   226     9
  209   211   225   229     9
  209   211   225   230     9
  209   212   214   215     9
  213   212   214   215     9
  209   212   216   217     9
  209   212   216   218     9
  213   212   216   217     9
  213   212   216   218     9
  214   212   216   217     9
  214   212   216   218     9
  215   214   212   216     9
  212   216   206   220     9
  217   216   206   220     9
  218   216   206   220     9
  206   216   212   209     9
  206   216   212   213     9
  206   216   212   214     9
  206   216   218   219     9
  212   216   218   219     9
  217   216   218   219     9
  206   220   223   224     9
  221   220   223   224     9
  222   220   223   224     9
  211   225   229   227     9
  226   225   229   227     9
  211   225   230   231     9
  211   225   230   232     9
  211   225   230   234     9
  226   225   230   231     9
  226   225   230   232     9
  226   225   230   234     9
  229   225   230   231     9
  229   225   230   232     9
  229   225   230   234     9
  228   227   238   234     9
  228   227   238   239     9
  228   227   238   240     9
  229   227   238   234     9
  229   227   238   239     9
  229   227   238   240     9
  228   227   242   243     9
  228   227   242   244     9
  228   227   242   245     9
  229   227   242   243     9
  229   227   242   244     9
  229   227   242   245     9
  238   227   242   243     9
  238   227   242   244     9
  238   227   242   245     9
  227   229   225   230     9
  225   229   227   228     9
  225   229   227   238     9
  225   229   227   242     9
  225   230   232   233     9
  231   230   232   233     9
  225   230   234   235     9
  225   230   234   236     9
  225   230   234   238     9
  231   230   234   235     9
  231   230   234   236     9
  231   230   234   238     9
  232   230   234   235     9
  232   230   234   236     9
  232   230   234   238     9
  233   232   230   234     9
  230   234   236   237     9
  235   234   236   237     9
  230   234   238   239     9
  230   234   238   240     9
  235   234   238   239     9
  235   234   238   240     9
  236   234   238   239     9
  236   234   238   240     9
  237   236   234   238     9
  234   238   227   242     9
  239   238   227   242     9
  240   238   227   242     9
  227   238   234   230     9
  227   238   234   235     9
  227   238   234   236     9
  227   238   240   241     9
  234   238   240   241     9
  239   238   240   241     9
  227   242   245   246     9
  243   242   245   246     9
  244   242   245   246     9

[ dihedrals ]
; ai	aj	ak	al	funct	q0	cq
   10    12     8    11     2
   12    14    10    13     2
   37    39    35    38     2
   39    41    37    40     2

#ifdef POSRES
[ position_restraints ]
    1     1    POSRES_FC_BB    POSRES_FC_BB    POSRES_FC_BB   
    3     1    POSRES_FC_SC    POSRES_FC_SC    POSRES_FC_SC   
    5     1    POSRES_FC_BB    POSRES_FC_BB    POSRES_FC_BB   
    7     1    POSRES_FC_BB    POSRES_FC_BB    POSRES_FC_BB   
    8     1    POSRES_FC_BB    POSRES_FC_BB    POSRES_FC_BB   
   10     1    POSRES_FC_SC    POSRES_FC_SC    POSRES_FC_SC   
   12     1    POSRES_FC_SC    POSRES_FC_SC    POSRES_FC_SC   
   13     1    POSRES_FC_SC    POSRES_FC_SC    POSRES_FC_SC   
   14     1    POSRES_FC_SC    POSRES_FC_SC    POSRES_FC_SC   
   18     1    POSRES_FC_BB    POSRES_FC_BB    POSRES_FC_BB   
   20     1    POSRES_FC_SC    POSRES_FC_SC    POSRES_FC_SC   
   22     1    POSRES_FC_BB    POSRES_FC_BB    POSRES_FC_BB   
   24     1    POSRES_FC_SC    POSRES_FC_SC    POSRES_FC_SC   
   25     1    POSRES_FC_SC    POSRES_FC_SC    POSRES_FC_SC   
   28     1    POSRES_FC_SC    POSRES_FC_SC    POSRES_FC_SC   
   30     1    POSRES_FC_BB    POSRES_FC_BB    POSRES_FC_BB   
   32     1    POSRES_FC_BB    POSRES_FC_BB    POSRES_FC_BB   
   34     1    POSRES_FC_BB    POSRES_FC_BB    POSRES_FC_BB   
   35     1    POSRES_FC_BB    POSRES_FC_BB    POSRES_FC_BB   
   37     1    POSRES_FC_SC    POSRES_FC_SC    POSRES_FC_SC   
   39     1    POSRES_FC_SC    POSRES_FC_SC    POSRES_FC_SC   
   40     1    POSRES_FC_SC    POSRES_FC_SC    POSRES_FC_SC   
   41     1    POSRES_FC_SC    POSRES_FC_SC    POSRES_FC_SC   
   45     1    POSRES_FC_BB    POSRES_FC_BB    POSRES_FC_BB   
   47     1    POSRES_FC_SC    POSRES_FC_SC    POSRES_FC_SC   
   49     1    POSRES_FC_BB    POSRES_FC_BB    POSRES_FC_BB   
   51     1    POSRES_FC_SC    POSRES_FC_SC    POSRES_FC_SC   
   52     1    POSRES_FC_SC    POSRES_FC_SC    POSRES_FC_SC   
   55     1    POSRES_FC_SC    POSRES_FC_SC    POSRES_FC_SC   
   57     1    POSRES_FC_BB    POSRES_FC_BB    POSRES_FC_BB   
   59     1    POSRES_FC_BB    POSRES_FC_BB    POSRES_FC_BB   
   61     1    POSRES_FC_BB    POSRES_FC_BB    POSRES_FC_BB   
   62     1    POSRES_FC_BB    POSRES_FC_BB    POSRES_FC_BB   
   64     1    POSRES_FC_SC    POSRES_FC_SC    POSRES_FC_SC   
   66     1    POSRES_FC_BB    POSRES_FC_BB    POSRES_FC_BB   
   68     1    POSRES_FC_SC    POSRES_FC_SC    POSRES_FC_SC   
   69     1    POSRES_FC_BB    POSRES_FC_BB    POSRES_FC_BB   
   71     1    POSRES_FC_SC    POSRES_FC_SC    POSRES_FC_SC   
   73     1    POSRES_FC_SC    POSRES_FC_SC    POSRES_FC_SC   
   76     1    POSRES_FC_SC    POSRES_FC_SC    POSRES_FC_SC   
   77     1    POSRES_FC_BB    POSRES_FC_BB    POSRES_FC_BB   
   79     1    POSRES_FC_BB    POSRES_FC_BB    POSRES_FC_BB   
   81     1    POSRES_FC_BB    POSRES_FC_BB    POSRES_FC_BB   
   82     1    POSRES_FC_BB    POSRES_FC_BB    POSRES_FC_BB   
   84     1    POSRES_FC_SC    POSRES_FC_SC    POSRES_FC_SC   
   85     1    POSRES_FC_BB    POSRES_FC_BB    POSRES_FC_BB   
   87     1    POSRES_FC_SC    POSRES_FC_SC    POSRES_FC_SC   
   89     1    POSRES_FC_BB    POSRES_FC_BB    POSRES_FC_BB   
   91     1    POSRES_FC_SC    POSRES_FC_SC    POSRES_FC_SC   
   93     1    POSRES_FC_SC    POSRES_FC_SC    POSRES_FC_SC   
   96     1    POSRES_FC_SC    POSRES_FC_SC    POSRES_FC_SC   
   98     1    POSRES_FC_BB    POSRES_FC_BB    POSRES_FC_BB   
  100     1    POSRES_FC_BB    POSRES_FC_BB    POSRES_FC_BB   
  102     1    POSRES_FC_BB    POSRES_FC_BB    POSRES_FC_BB   
  103     1    POSRES_FC_BB    POSRES_FC_BB    POSRES_FC_BB   
  105     1    POSRES_FC_SC    POSRES_FC_SC    POSRES_FC_SC   
  106     1    POSRES_FC_BB    POSRES_FC_BB    POSRES_FC_BB   
  108     1    POSRES_FC_SC    POSRES_FC_SC    POSRES_FC_SC   
  110     1    POSRES_FC_BB    POSRES_FC_BB    POSRES_FC_BB   
  112     1    POSRES_FC_SC    POSRES_FC_SC    POSRES_FC_SC   
  114     1    POSRES_FC_SC    POSRES_FC_SC    POSRES_FC_SC   
  117     1    POSRES_FC_SC    POSRES_FC_SC    POSRES_FC_SC   
  119     1    POSRES_FC_BB    POSRES_FC_BB    POSRES_FC_BB   
  121     1    POSRES_FC_BB    POSRES_FC_BB    POSRES_FC_BB   
  123     1    POSRES_FC_BB    POSRES_FC_BB    POSRES_FC_BB   
  124     1    POSRES_FC_BB    POSRES_FC_BB    POSRES_FC_BB   
  126     1    POSRES_FC_SC    POSRES_FC_SC    POSRES_FC_SC   
  128     1    POSRES_FC_BB    POSRES_FC_BB    POSRES_FC_BB   
  130     1    POSRES_FC_SC    POSRES_FC_SC    POSRES_FC_SC   
  132     1    POSRES_FC_BB    POSRES_FC_BB    POSRES_FC_BB   
  134     1    POSRES_FC_SC    POSRES_FC_SC    POSRES_FC_SC   
  136     1    POSRES_FC_SC    POSRES_FC_SC    POSRES_FC_SC   
  139     1    POSRES_FC_SC    POSRES_FC_SC    POSRES_FC_SC   
  141     1    POSRES_FC_BB    POSRES_FC_BB    POSRES_FC_BB   
  143     1    POSRES_FC_BB    POSRES_FC_BB    POSRES_FC_BB   
  145     1    POSRES_FC_BB    POSRES_FC_BB    POSRES_FC_BB   
  146     1    POSRES_FC_BB    POSRES_FC_BB    POSRES_FC_BB   
  148     1    POSRES_FC_SC    POSRES_FC_SC    POSRES_FC_SC   
  150     1    POSRES_FC_BB    POSRES_FC_BB    POSRES_FC_BB   
  152     1    POSRES_FC_SC    POSRES_FC_SC    POSRES_FC_SC   
  153     1    POSRES_FC_BB    POSRES_FC_BB    POSRES_FC_BB   
  155     1    POSRES_FC_SC    POSRES_FC_SC    POSRES_FC_SC   
  157     1    POSRES_FC_SC    POSRES_FC_SC    POSRES_FC_SC   
  160     1    POSRES_FC_SC    POSRES_FC_SC    POSRES_FC_SC   
  161     1    POSRES_FC_BB    POSRES_FC_BB    POSRES_FC_BB   
  163     1    POSRES_FC_BB    POSRES_FC_BB    POSRES_FC_BB   
  165     1    POSRES_FC_BB    POSRES_FC_BB    POSRES_FC_BB   
  166     1    POSRES_FC_BB    POSRES_FC_BB    POSRES_FC_BB   
  168     1    POSRES_FC_SC    POSRES_FC_SC    POSRES_FC_SC   
  169     1    POSRES_FC_BB    POSRES_FC_BB    POSRES_FC_BB   
  171     1    POSRES_FC_SC    POSRES_FC_SC    POSRES_FC_SC   
  173     1    POSRES_FC_BB    POSRES_FC_BB    POSRES_FC_BB   
  175     1    POSRES_FC_SC    POSRES_FC_SC    POSRES_FC_SC   
  177     1    POSRES_FC_SC    POSRES_FC_SC    POSRES_FC_SC   
  180     1    POSRES_FC_SC    POSRES_FC_SC    POSRES_FC_SC   
  182     1    POSRES_FC_BB    POSRES_FC_BB    POSRES_FC_BB   
  184     1    POSRES_FC_BB    POSRES_FC_BB    POSRES_FC_BB   
  186     1    POSRES_FC_BB    POSRES_FC_BB    POSRES_FC_BB   
  187     1    POSRES_FC_BB    POSRES_FC_BB    POSRES_FC_BB   
  189     1    POSRES_FC_SC    POSRES_FC_SC    POSRES_FC_SC   
  191     1    POSRES_FC_BB    POSRES_FC_BB    POSRES_FC_BB   
  193     1    POSRES_FC_SC    POSRES_FC_SC    POSRES_FC_SC   
  195     1    POSRES_FC_BB    POSRES_FC_BB    POSRES_FC_BB   
  197     1    POSRES_FC_SC    POSRES_FC_SC    POSRES_FC_SC   
  199     1    POSRES_FC_SC    POSRES_FC_SC    POSRES_FC_SC   
  202     1    POSRES_FC_SC    POSRES_FC_SC    POSRES_FC_SC   
  204     1    POSRES_FC_BB    POSRES_FC_BB    POSRES_FC_BB   
  206     1    POSRES_FC_BB    POSRES_FC_BB    POSRES_FC_BB   
  208     1    POSRES_FC_BB    POSRES_FC_BB    POSRES_FC_BB   
  209     1    POSRES_FC_BB    POSRES_FC_BB    POSRES_FC_BB   
  211     1    POSRES_FC_SC    POSRES_FC_SC    POSRES_FC_SC   
  212     1    POSRES_FC_BB    POSRES_FC_BB    POSRES_FC_BB   
  214     1    POSRES_FC_SC    POSRES_FC_SC    POSRES_FC_SC   
  216     1    POSRES_FC_BB    POSRES_FC_BB    POSRES_FC_BB   
  218     1    POSRES_FC_SC    POSRES_FC_SC    POSRES_FC_SC   
  220     1    POSRES_FC_SC    POSRES_FC_SC    POSRES_FC_SC   
  223     1    POSRES_FC_SC    POSRES_FC_SC    POSRES_FC_SC   
  225     1    POSRES_FC_BB    POSRES_FC_BB    POSRES_FC_BB   
  227     1    POSRES_FC_BB    POSRES_FC_BB    POSRES_FC_BB   
  229     1    POSRES_FC_BB    POSRES_FC_BB    POSRES_FC_BB   
  230     1    POSRES_FC_BB    POSRES_FC_BB    POSRES_FC_BB   
  232     1    POSRES_FC_SC    POSRES_FC_SC    POSRES_FC_SC   
  234     1    POSRES_FC_BB    POSRES_FC_BB    POSRES_FC_BB   
  236     1    POSRES_FC_SC    POSRES_FC_SC    POSRES_FC_SC   
  238     1    POSRES_FC_BB    POSRES_FC_BB    POSRES_FC_BB   
  240     1    POSRES_FC_SC    POSRES_FC_SC    POSRES_FC_SC   
  242     1    POSRES_FC_SC    POSRES_FC_SC    POSRES_FC_SC   
  245     1    POSRES_FC_SC    POSRES_FC_SC    POSRES_FC_SC   
#endif

#ifdef DIHRES
[ dihedral_restraints ]
    1     7     5    22     1     60.0      2.5       DIHRES_FC
    7     5    22    18     1    -60.0      2.5       DIHRES_FC
    5    22    18     8     1     60.0      2.5       DIHRES_FC
   22    18     8     1     1    -60.0      2.5       DIHRES_FC
   18     8     1     7     1     60.0      2.5       DIHRES_FC
    8     1     7     5     1    -60.0      2.5       DIHRES_FC
   30    34    32    49     1     60.0      2.5       DIHRES_FC
   34    32    49    45     1    -60.0      2.5       DIHRES_FC
   32    49    45    35     1     60.0      2.5       DIHRES_FC
   49    45    35    30     1    -60.0      2.5       DIHRES_FC
   45    35    30    34     1     60.0      2.5       DIHRES_FC
   35    30    34    32     1    -60.0      2.5       DIHRES_FC
   57    61    59    69     1     60.0      2.5       DIHRES_FC
   61    59    69    66     1    -60.0      2.5       DIHRES_FC
   59    69    66    62     1     60.0      2.5       DIHRES_FC
   69    66    62    57     1    -60.0      2.5       DIHRES_FC
   66    62    57    61     1     60.0      2.5       DIHRES_FC
   62    57    61    59     1    -60.0      2.5       DIHRES_FC
   77    81    79    89     1     60.0      2.5       DIHRES_FC
   81    79    89    85     1    -60.0      2.5       DIHRES_FC
   79    89    85    82     1     60.0      2.5       DIHRES_FC
   89    85    82    77     1    -60.0      2.5       DIHRES_FC
   85    82    77    81     1     60.0      2.5       DIHRES_FC
   82    77    81    79     1    -60.0      2.5       DIHRES_FC
   98   102   100   110     1     60.0      2.5       DIHRES_FC
  102   100   110   106     1    -60.0      2.5       DIHRES_FC
  100   110   106   103     1     60.0      2.5       DIHRES_FC
  110   106   103    98     1    -60.0      2.5       DIHRES_FC
  106   103    98   102     1     60.0      2.5       DIHRES_FC
  103    98   102   100     1    -60.0      2.5       DIHRES_FC
  119   123   121   132     1     60.0      2.5       DIHRES_FC
  123   121   132   128     1    -60.0      2.5       DIHRES_FC
  121   132   128   124     1     60.0      2.5       DIHRES_FC
  132   128   124   119     1    -60.0      2.5       DIHRES_FC
  128   124   119   123     1     60.0      2.5       DIHRES_FC
  124   119   123   121     1    -60.0      2.5       DIHRES_FC
  141   145   143   153     1     60.0      2.5       DIHRES_FC
  145   143   153   150     1    -60.0      2.5       DIHRES_FC
  143   153   150   146     1     60.0      2.5       DIHRES_FC
  153   150   146   141     1    -60.0      2.5       DIHRES_FC
  150   146   141   145     1     60.0      2.5       DIHRES_FC
  146   141   145   143     1    -60.0      2.5       DIHRES_FC
  161   165   163   173     1     60.0      2.5       DIHRES_FC
  165   163   173   169     1    -60.0      2.5       DIHRES_FC
  163   173   169   166     1     60.0      2.5       DIHRES_FC
  173   169   166   161     1    -60.0      2.5       DIHRES_FC
  169   166   161   165     1     60.0      2.5       DIHRES_FC
  166   161   165   163     1    -60.0      2.5       DIHRES_FC
  182   186   184   195     1     60.0      2.5       DIHRES_FC
  186   184   195   191     1    -60.0      2.5       DIHRES_FC
  184   195   191   187     1     60.0      2.5       DIHRES_FC
  195   191   187   182     1    -60.0      2.5       DIHRES_FC
  191   187   182   186     1     60.0      2.5       DIHRES_FC
  187   182   186   184     1    -60.0      2.5       DIHRES_FC
  204   208   206   216     1     60.0      2.5       DIHRES_FC
  208   206   216   212     1    -60.0      2.5       DIHRES_FC
  206   216   212   209     1     60.0      2.5       DIHRES_FC
  216   212   209   204     1    -60.0      2.5       DIHRES_FC
  212   209   204   208     1     60.0      2.5       DIHRES_FC
  209   204   208   206     1    -60.0      2.5       DIHRES_FC
  225   229   227   238     1     60.0      2.5       DIHRES_FC
  229   227   238   234     1    -60.0      2.5       DIHRES_FC
  227   238   234   230     1     60.0      2.5       DIHRES_FC
  238   234   230   225     1    -60.0      2.5       DIHRES_FC
  234   230   225   229     1     60.0      2.5       DIHRES_FC
  230   225   229   227     1    -60.0      2.5       DIHRES_FC
#endif
