;;
;; Generated by CHARMM-GUI FF-Converter
;;
;; Correspondance:
;; jul316@lehigh.edu or wonpil@lehigh.edu
;;
;; GROMACS topology file for PROA
;;


[ moleculetype ]
; name	nrexcl
PROA	     3

[ atoms ]
; nr	type	resnr	residu	atom	cgnr	charge	mass
     1         NP     63      PRO      N      1    -0.070000    14.0070   ; qtot -0.070
     2         HC     63      PRO    HN1      2     0.240000     1.0080   ; qtot  0.170
     3         HC     63      PRO    HN2      3     0.240000     1.0080   ; qtot  0.410
     4        CP3     63      PRO     CD      4     0.160000    12.0110   ; qtot  0.570
     5        HA2     63      PRO    HD1      5     0.090000     1.0080   ; qtot  0.660
     6        HA2     63      PRO    HD2      6     0.090000     1.0080   ; qtot  0.750
     7        CP1     63      PRO     CA      7     0.160000    12.0110   ; qtot  0.910
     8        HB1     63      PRO     HA      8     0.090000     1.0080   ; qtot  1.000
     9        CP2     63      PRO     CB      9    -0.180000    12.0110   ; qtot  0.820
    10        HA2     63      PRO    HB1     10     0.090000     1.0080   ; qtot  0.910
    11        HA2     63      PRO    HB2     11     0.090000     1.0080   ; qtot  1.000
    12        CP2     63      PRO     CG     12    -0.180000    12.0110   ; qtot  0.820
    13        HA2     63      PRO    HG1     13     0.090000     1.0080   ; qtot  0.910
    14        HA2     63      PRO    HG2     14     0.090000     1.0080   ; qtot  1.000
    15          C     63      PRO      C     15     0.510000    12.0110   ; qtot  1.510
    16          O     63      PRO      O     16    -0.510000    15.9994   ; qtot  1.000
    17        NH1     64      ASN      N     17    -0.470000    14.0070   ; qtot  0.530
    18          H     64      ASN     HN     18     0.310000     1.0080   ; qtot  0.840
    19        CT1     64      ASN     CA     19     0.070000    12.0110   ; qtot  0.910
    20        HB1     64      ASN     HA     20     0.090000     1.0080   ; qtot  1.000
    21        CT2     64      ASN     CB     21    -0.180000    12.0110   ; qtot  0.820
    22        HA2     64      ASN    HB1     22     0.090000     1.0080   ; qtot  0.910
    23        HA2     64      ASN    HB2     23     0.090000     1.0080   ; qtot  1.000
    24         CC     64      ASN     CG     24     0.550000    12.0110   ; qtot  1.550
    25          O     64      ASN    OD1     25    -0.550000    15.9994   ; qtot  1.000
    26        NH2     64      ASN    ND2     26    -0.620000    14.0070   ; qtot  0.380
    27          H     64      ASN   HD21     27     0.320000     1.0080   ; qtot  0.700
    28          H     64      ASN   HD22     28     0.300000     1.0080   ; qtot  1.000
    29          C     64      ASN      C     29     0.510000    12.0110   ; qtot  1.510
    30          O     64      ASN      O     30    -0.510000    15.9994   ; qtot  1.000
    31        NH1     65      VAL      N     31    -0.470000    14.0070   ; qtot  0.530
    32          H     65      VAL     HN     32     0.310000     1.0080   ; qtot  0.840
    33        CT1     65      VAL     CA     33     0.070000    12.0110   ; qtot  0.910
    34        HB1     65      VAL     HA     34     0.090000     1.0080   ; qtot  1.000
    35        CT1     65      VAL     CB     35    -0.090000    12.0110   ; qtot  0.910
    36        HA1     65      VAL     HB     36     0.090000     1.0080   ; qtot  1.000
    37        CT3     65      VAL    CG1     37    -0.270000    12.0110   ; qtot  0.730
    38        HA3     65      VAL   HG11     38     0.090000     1.0080   ; qtot  0.820
    39        HA3     65      VAL   HG12     39     0.090000     1.0080   ; qtot  0.910
    40        HA3     65      VAL   HG13     40     0.090000     1.0080   ; qtot  1.000
    41        CT3     65      VAL    CG2     41    -0.270000    12.0110   ; qtot  0.730
    42        HA3     65      VAL   HG21     42     0.090000     1.0080   ; qtot  0.820
    43        HA3     65      VAL   HG22     43     0.090000     1.0080   ; qtot  0.910
    44        HA3     65      VAL   HG23     44     0.090000     1.0080   ; qtot  1.000
    45          C     65      VAL      C     45     0.510000    12.0110   ; qtot  1.510
    46          O     65      VAL      O     46    -0.510000    15.9994   ; qtot  1.000
    47        NH1     66      SER      N     47    -0.470000    14.0070   ; qtot  0.530
    48          H     66      SER     HN     48     0.310000     1.0080   ; qtot  0.840
    49        CT1     66      SER     CA     49     0.070000    12.0110   ; qtot  0.910
    50        HB1     66      SER     HA     50     0.090000     1.0080   ; qtot  1.000
    51        CT2     66      SER     CB     51     0.050000    12.0110   ; qtot  1.050
    52        HA2     66      SER    HB1     52     0.090000     1.0080   ; qtot  1.140
    53        HA2     66      SER    HB2     53     0.090000     1.0080   ; qtot  1.230
    54        OH1     66      SER     OG     54    -0.660000    15.9994   ; qtot  0.570
    55          H     66      SER    HG1     55     0.430000     1.0080   ; qtot  1.000
    56          C     66      SER      C     56     0.510000    12.0110   ; qtot  1.510
    57          O     66      SER      O     57    -0.510000    15.9994   ; qtot  1.000
    58        NH1     67      ASN      N     58    -0.470000    14.0070   ; qtot  0.530
    59          H     67      ASN     HN     59     0.310000     1.0080   ; qtot  0.840
    60        CT1     67      ASN     CA     60     0.070000    12.0110   ; qtot  0.910
    61        HB1     67      ASN     HA     61     0.090000     1.0080   ; qtot  1.000
    62        CT2     67      ASN     CB     62    -0.180000    12.0110   ; qtot  0.820
    63        HA2     67      ASN    HB1     63     0.090000     1.0080   ; qtot  0.910
    64        HA2     67      ASN    HB2     64     0.090000     1.0080   ; qtot  1.000
    65         CC     67      ASN     CG     65     0.550000    12.0110   ; qtot  1.550
    66          O     67      ASN    OD1     66    -0.550000    15.9994   ; qtot  1.000
    67        NH2     67      ASN    ND2     67    -0.620000    14.0070   ; qtot  0.380
    68          H     67      ASN   HD21     68     0.320000     1.0080   ; qtot  0.700
    69          H     67      ASN   HD22     69     0.300000     1.0080   ; qtot  1.000
    70          C     67      ASN      C     70     0.510000    12.0110   ; qtot  1.510
    71          O     67      ASN      O     71    -0.510000    15.9994   ; qtot  1.000
    72        NH1     68      MET      N     72    -0.470000    14.0070   ; qtot  0.530
    73          H     68      MET     HN     73     0.310000     1.0080   ; qtot  0.840
    74        CT1     68      MET     CA     74     0.070000    12.0110   ; qtot  0.910
    75        HB1     68      MET     HA     75     0.090000     1.0080   ; qtot  1.000
    76        CT2     68      MET     CB     76    -0.180000    12.0110   ; qtot  0.820
    77        HA2     68      MET    HB1     77     0.090000     1.0080   ; qtot  0.910
    78        HA2     68      MET    HB2     78     0.090000     1.0080   ; qtot  1.000
    79        CT2     68      MET     CG     79    -0.140000    12.0110   ; qtot  0.860
    80        HA2     68      MET    HG1     80     0.090000     1.0080   ; qtot  0.950
    81        HA2     68      MET    HG2     81     0.090000     1.0080   ; qtot  1.040
    82          S     68      MET     SD     82    -0.090000    32.0600   ; qtot  0.950
    83        CT3     68      MET     CE     83    -0.220000    12.0110   ; qtot  0.730
    84        HA3     68      MET    HE1     84     0.090000     1.0080   ; qtot  0.820
    85        HA3     68      MET    HE2     85     0.090000     1.0080   ; qtot  0.910
    86        HA3     68      MET    HE3     86     0.090000     1.0080   ; qtot  1.000
    87          C     68      MET      C     87     0.510000    12.0110   ; qtot  1.510
    88          O     68      MET      O     88    -0.510000    15.9994   ; qtot  1.000
    89        NH1     69      SER      N     89    -0.470000    14.0070   ; qtot  0.530
    90          H     69      SER     HN     90     0.310000     1.0080   ; qtot  0.840
    91        CT1     69      SER     CA     91     0.070000    12.0110   ; qtot  0.910
    92        HB1     69      SER     HA     92     0.090000     1.0080   ; qtot  1.000
    93        CT2     69      SER     CB     93     0.050000    12.0110   ; qtot  1.050
    94        HA2     69      SER    HB1     94     0.090000     1.0080   ; qtot  1.140
    95        HA2     69      SER    HB2     95     0.090000     1.0080   ; qtot  1.230
    96        OH1     69      SER     OG     96    -0.660000    15.9994   ; qtot  0.570
    97          H     69      SER    HG1     97     0.430000     1.0080   ; qtot  1.000
    98          C     69      SER      C     98     0.510000    12.0110   ; qtot  1.510
    99          O     69      SER      O     99    -0.510000    15.9994   ; qtot  1.000
   100        NH1     70      GLN      N    100    -0.470000    14.0070   ; qtot  0.530
   101          H     70      GLN     HN    101     0.310000     1.0080   ; qtot  0.840
   102        CT1     70      GLN     CA    102     0.070000    12.0110   ; qtot  0.910
   103        HB1     70      GLN     HA    103     0.090000     1.0080   ; qtot  1.000
   104        CT2     70      GLN     CB    104    -0.180000    12.0110   ; qtot  0.820
   105        HA2     70      GLN    HB1    105     0.090000     1.0080   ; qtot  0.910
   106        HA2     70      GLN    HB2    106     0.090000     1.0080   ; qtot  1.000
   107        CT2     70      GLN     CG    107    -0.180000    12.0110   ; qtot  0.820
   108        HA2     70      GLN    HG1    108     0.090000     1.0080   ; qtot  0.910
   109        HA2     70      GLN    HG2    109     0.090000     1.0080   ; qtot  1.000
   110         CC     70      GLN     CD    110     0.550000    12.0110   ; qtot  1.550
   111          O     70      GLN    OE1    111    -0.550000    15.9994   ; qtot  1.000
   112        NH2     70      GLN    NE2    112    -0.620000    14.0070   ; qtot  0.380
   113          H     70      GLN   HE21    113     0.320000     1.0080   ; qtot  0.700
   114          H     70      GLN   HE22    114     0.300000     1.0080   ; qtot  1.000
   115          C     70      GLN      C    115     0.510000    12.0110   ; qtot  1.510
   116          O     70      GLN      O    116    -0.510000    15.9994   ; qtot  1.000
   117        NH1     71      CYS      N    117    -0.470000    14.0070   ; qtot  0.530
   118          H     71      CYS     HN    118     0.310000     1.0080   ; qtot  0.840
   119        CT1     71      CYS     CA    119     0.070000    12.0110   ; qtot  0.910
   120        HB1     71      CYS     HA    120     0.090000     1.0080   ; qtot  1.000
   121        CT2     71      CYS     CB    121    -0.110000    12.0110   ; qtot  0.890
   122        HA2     71      CYS    HB1    122     0.090000     1.0080   ; qtot  0.980
   123        HA2     71      CYS    HB2    123     0.090000     1.0080   ; qtot  1.070
   124          S     71      CYS     SG    124    -0.230000    32.0600   ; qtot  0.840
   125         HS     71      CYS    HG1    125     0.160000     1.0080   ; qtot  1.000
   126         CC     71      CYS      C    126     0.340000    12.0110   ; qtot  1.340
   127         OC     71      CYS    OT1    127    -0.670000    15.9994   ; qtot  0.670
   128         OC     71      CYS    OT2    128    -0.670000    15.9994   ; qtot  0.000

[ bonds ]
; ai	aj	funct	b0	Kb
    2     1     1
    3     1     1
    1     4     1
    1     7     1
    5     4     1
    6     4     1
   12     4     1
    8     7     1
    7     9     1
   15     7     1
   10     9     1
   11     9     1
    9    12     1
   13    12     1
   14    12     1
   16    15     1
   15    17     1
   17    18     1
   17    19     1
   19    20     1
   21    19     1
   29    19     1
   21    22     1
   21    23     1
   24    21     1
   24    25     1
   26    24     1
   26    27     1
   26    28     1
   29    30     1
   29    31     1
   31    32     1
   31    33     1
   33    34     1
   35    33     1
   45    33     1
   35    36     1
   37    35     1
   41    35     1
   37    38     1
   37    39     1
   37    40     1
   41    42     1
   41    43     1
   41    44     1
   46    45     1
   45    47     1
   47    48     1
   47    49     1
   49    50     1
   51    49     1
   56    49     1
   51    52     1
   51    53     1
   54    51     1
   54    55     1
   57    56     1
   56    58     1
   58    59     1
   58    60     1
   60    61     1
   62    60     1
   70    60     1
   62    63     1
   62    64     1
   65    62     1
   65    66     1
   67    65     1
   67    68     1
   67    69     1
   70    71     1
   70    72     1
   72    73     1
   72    74     1
   74    75     1
   76    74     1
   87    74     1
   76    77     1
   76    78     1
   79    76     1
   79    80     1
   79    81     1
   82    79     1
   83    82     1
   83    84     1
   83    85     1
   83    86     1
   88    87     1
   87    89     1
   89    90     1
   89    91     1
   91    92     1
   93    91     1
   98    91     1
   93    94     1
   93    95     1
   96    93     1
   96    97     1
   99    98     1
   98   100     1
  100   101     1
  100   102     1
  102   103     1
  104   102     1
  115   102     1
  104   105     1
  104   106     1
  107   104     1
  107   108     1
  107   109     1
  110   107     1
  110   111     1
  112   110     1
  112   113     1
  112   114     1
  116   115     1
  115   117     1
  117   118     1
  117   119     1
  119   120     1
  121   119     1
  126   119     1
  121   122     1
  121   123     1
  124   121     1
  124   125     1
  126   127     1
  126   128     1

[ pairs ]
; ai	aj	funct	c6	c12 or
; ai	aj	funct	fudgeQQ	q1	q2	c6	c12
    1    10     1
    1    11     1
    1    13     1
    1    14     1
    1    16     1
    1    17     1
    2     5     1
    2     6     1
    2     8     1
    2     9     1
    2    12     1
    2    15     1
    3     5     1
    3     6     1
    3     8     1
    3     9     1
    3    12     1
    3    15     1
    4     8     1
    4    10     1
    4    11     1
    4    15     1
    5     7     1
    5     9     1
    5    13     1
    5    14     1
    6     7     1
    6     9     1
    6    13     1
    6    14     1
    7    13     1
    7    14     1
    7    18     1
    7    19     1
    8    10     1
    8    11     1
    8    12     1
    8    16     1
    8    17     1
    9    16     1
    9    17     1
   10    13     1
   10    14     1
   10    15     1
   11    13     1
   11    14     1
   11    15     1
   12    15     1
   15    20     1
   15    21     1
   15    29     1
   16    18     1
   16    19     1
   17    22     1
   17    23     1
   17    24     1
   17    30     1
   17    31     1
   18    20     1
   18    21     1
   18    29     1
   19    25     1
   19    26     1
   19    32     1
   19    33     1
   20    22     1
   20    23     1
   20    24     1
   20    30     1
   20    31     1
   21    27     1
   21    28     1
   21    30     1
   21    31     1
   22    25     1
   22    26     1
   22    29     1
   23    25     1
   23    26     1
   23    29     1
   24    29     1
   25    27     1
   25    28     1
   29    34     1
   29    35     1
   29    45     1
   30    32     1
   30    33     1
   31    36     1
   31    37     1
   31    41     1
   31    46     1
   31    47     1
   32    34     1
   32    35     1
   32    45     1
   33    38     1
   33    39     1
   33    40     1
   33    42     1
   33    43     1
   33    44     1
   33    48     1
   33    49     1
   34    36     1
   34    37     1
   34    41     1
   34    46     1
   34    47     1
   35    46     1
   35    47     1
   36    38     1
   36    39     1
   36    40     1
   36    42     1
   36    43     1
   36    44     1
   36    45     1
   37    42     1
   37    43     1
   37    44     1
   37    45     1
   38    41     1
   39    41     1
   40    41     1
   41    45     1
   45    50     1
   45    51     1
   45    56     1
   46    48     1
   46    49     1
   47    52     1
   47    53     1
   47    54     1
   47    57     1
   47    58     1
   48    50     1
   48    51     1
   48    56     1
   49    55     1
   49    59     1
   49    60     1
   50    52     1
   50    53     1
   50    54     1
   50    57     1
   50    58     1
   51    57     1
   51    58     1
   52    55     1
   52    56     1
   53    55     1
   53    56     1
   54    56     1
   56    61     1
   56    62     1
   56    70     1
   57    59     1
   57    60     1
   58    63     1
   58    64     1
   58    65     1
   58    71     1
   58    72     1
   59    61     1
   59    62     1
   59    70     1
   60    66     1
   60    67     1
   60    73     1
   60    74     1
   61    63     1
   61    64     1
   61    65     1
   61    71     1
   61    72     1
   62    68     1
   62    69     1
   62    71     1
   62    72     1
   63    66     1
   63    67     1
   63    70     1
   64    66     1
   64    67     1
   64    70     1
   65    70     1
   66    68     1
   66    69     1
   70    75     1
   70    76     1
   70    87     1
   71    73     1
   71    74     1
   72    77     1
   72    78     1
   72    79     1
   72    88     1
   72    89     1
   73    75     1
   73    76     1
   73    87     1
   74    80     1
   74    81     1
   74    82     1
   74    90     1
   74    91     1
   75    77     1
   75    78     1
   75    79     1
   75    88     1
   75    89     1
   76    83     1
   76    88     1
   76    89     1
   77    80     1
   77    81     1
   77    82     1
   77    87     1
   78    80     1
   78    81     1
   78    82     1
   78    87     1
   79    84     1
   79    85     1
   79    86     1
   79    87     1
   80    83     1
   81    83     1
   87    92     1
   87    93     1
   87    98     1
   88    90     1
   88    91     1
   89    94     1
   89    95     1
   89    96     1
   89    99     1
   89   100     1
   90    92     1
   90    93     1
   90    98     1
   91    97     1
   91   101     1
   91   102     1
   92    94     1
   92    95     1
   92    96     1
   92    99     1
   92   100     1
   93    99     1
   93   100     1
   94    97     1
   94    98     1
   95    97     1
   95    98     1
   96    98     1
   98   103     1
   98   104     1
   98   115     1
   99   101     1
   99   102     1
  100   105     1
  100   106     1
  100   107     1
  100   116     1
  100   117     1
  101   103     1
  101   104     1
  101   115     1
  102   108     1
  102   109     1
  102   110     1
  102   118     1
  102   119     1
  103   105     1
  103   106     1
  103   107     1
  103   116     1
  103   117     1
  104   111     1
  104   112     1
  104   116     1
  104   117     1
  105   108     1
  105   109     1
  105   110     1
  105   115     1
  106   108     1
  106   109     1
  106   110     1
  106   115     1
  107   113     1
  107   114     1
  107   115     1
  108   111     1
  108   112     1
  109   111     1
  109   112     1
  111   113     1
  111   114     1
  115   120     1
  115   121     1
  115   126     1
  116   118     1
  116   119     1
  117   122     1
  117   123     1
  117   124     1
  117   127     1
  117   128     1
  118   120     1
  118   121     1
  118   126     1
  119   125     1
  120   122     1
  120   123     1
  120   124     1
  120   127     1
  120   128     1
  121   127     1
  121   128     1
  122   125     1
  122   126     1
  123   125     1
  123   126     1
  124   126     1

[ angles ] 
; ai	aj	ak	funct	th0	cth	S0	Kub
    2     1     3     5
    2     1     4     5
    2     1     7     5
    3     1     4     5
    3     1     7     5
    4     1     7     5
    1     4     5     5
    1     4     6     5
    1     4    12     5
    5     4     6     5
    5     4    12     5
    6     4    12     5
    1     7     8     5
    1     7     9     5
    1     7    15     5
    8     7     9     5
    8     7    15     5
    9     7    15     5
    7     9    10     5
    7     9    11     5
    7     9    12     5
   10     9    11     5
   10     9    12     5
   11     9    12     5
    4    12     9     5
    4    12    13     5
    4    12    14     5
    9    12    13     5
    9    12    14     5
   13    12    14     5
    7    15    16     5
    7    15    17     5
   16    15    17     5
   15    17    18     5
   15    17    19     5
   18    17    19     5
   17    19    20     5
   17    19    21     5
   17    19    29     5
   20    19    21     5
   20    19    29     5
   21    19    29     5
   19    21    22     5
   19    21    23     5
   19    21    24     5
   22    21    23     5
   22    21    24     5
   23    21    24     5
   21    24    25     5
   21    24    26     5
   25    24    26     5
   24    26    27     5
   24    26    28     5
   27    26    28     5
   19    29    30     5
   19    29    31     5
   30    29    31     5
   29    31    32     5
   29    31    33     5
   32    31    33     5
   31    33    34     5
   31    33    35     5
   31    33    45     5
   34    33    35     5
   34    33    45     5
   35    33    45     5
   33    35    36     5
   33    35    37     5
   33    35    41     5
   36    35    37     5
   36    35    41     5
   37    35    41     5
   35    37    38     5
   35    37    39     5
   35    37    40     5
   38    37    39     5
   38    37    40     5
   39    37    40     5
   35    41    42     5
   35    41    43     5
   35    41    44     5
   42    41    43     5
   42    41    44     5
   43    41    44     5
   33    45    46     5
   33    45    47     5
   46    45    47     5
   45    47    48     5
   45    47    49     5
   48    47    49     5
   47    49    50     5
   47    49    51     5
   47    49    56     5
   50    49    51     5
   50    49    56     5
   51    49    56     5
   49    51    52     5
   49    51    53     5
   49    51    54     5
   52    51    53     5
   52    51    54     5
   53    51    54     5
   51    54    55     5
   49    56    57     5
   49    56    58     5
   57    56    58     5
   56    58    59     5
   56    58    60     5
   59    58    60     5
   58    60    61     5
   58    60    62     5
   58    60    70     5
   61    60    62     5
   61    60    70     5
   62    60    70     5
   60    62    63     5
   60    62    64     5
   60    62    65     5
   63    62    64     5
   63    62    65     5
   64    62    65     5
   62    65    66     5
   62    65    67     5
   66    65    67     5
   65    67    68     5
   65    67    69     5
   68    67    69     5
   60    70    71     5
   60    70    72     5
   71    70    72     5
   70    72    73     5
   70    72    74     5
   73    72    74     5
   72    74    75     5
   72    74    76     5
   72    74    87     5
   75    74    76     5
   75    74    87     5
   76    74    87     5
   74    76    77     5
   74    76    78     5
   74    76    79     5
   77    76    78     5
   77    76    79     5
   78    76    79     5
   76    79    80     5
   76    79    81     5
   76    79    82     5
   80    79    81     5
   80    79    82     5
   81    79    82     5
   79    82    83     5
   82    83    84     5
   82    83    85     5
   82    83    86     5
   84    83    85     5
   84    83    86     5
   85    83    86     5
   74    87    88     5
   74    87    89     5
   88    87    89     5
   87    89    90     5
   87    89    91     5
   90    89    91     5
   89    91    92     5
   89    91    93     5
   89    91    98     5
   92    91    93     5
   92    91    98     5
   93    91    98     5
   91    93    94     5
   91    93    95     5
   91    93    96     5
   94    93    95     5
   94    93    96     5
   95    93    96     5
   93    96    97     5
   91    98    99     5
   91    98   100     5
   99    98   100     5
   98   100   101     5
   98   100   102     5
  101   100   102     5
  100   102   103     5
  100   102   104     5
  100   102   115     5
  103   102   104     5
  103   102   115     5
  104   102   115     5
  102   104   105     5
  102   104   106     5
  102   104   107     5
  105   104   106     5
  105   104   107     5
  106   104   107     5
  104   107   108     5
  104   107   109     5
  104   107   110     5
  108   107   109     5
  108   107   110     5
  109   107   110     5
  107   110   111     5
  107   110   112     5
  111   110   112     5
  110   112   113     5
  110   112   114     5
  113   112   114     5
  102   115   116     5
  102   115   117     5
  116   115   117     5
  115   117   118     5
  115   117   119     5
  118   117   119     5
  117   119   120     5
  117   119   121     5
  117   119   126     5
  120   119   121     5
  120   119   126     5
  121   119   126     5
  119   121   122     5
  119   121   123     5
  119   121   124     5
  122   121   123     5
  122   121   124     5
  123   121   124     5
  121   124   125     5
  119   126   127     5
  119   126   128     5
  127   126   128     5

[ dihedrals ]
; ai	aj	ak	al	funct	phi0	cp	mult
    2     1     4     5     9
    2     1     4     6     9
    2     1     4    12     9
    3     1     4     5     9
    3     1     4     6     9
    3     1     4    12     9
    7     1     4    12     9
    2     1     7     8     9
    2     1     7     9     9
    2     1     7    15     9
    3     1     7     8     9
    3     1     7     9     9
    3     1     7    15     9
    4     1     7     8     9
    4     1     7     9     9
    4     1     7    15     9
    5     4     1     7     9
    6     4     1     7     9
    1     4    12     9     9
    1     4    12    13     9
    1     4    12    14     9
    5     4    12     9     9
    5     4    12    13     9
    5     4    12    14     9
    6     4    12     9     9
    6     4    12    13     9
    6     4    12    14     9
    1     7     9    10     9
    1     7     9    11     9
    1     7     9    12     9
    8     7     9    10     9
    8     7     9    11     9
    8     7     9    12     9
    1     7    15    16     9
    1     7    15    17     9
    8     7    15    16     9
    8     7    15    17     9
    9     7    15    16     9
    9     7    15    17     9
   10     9     7    15     9
   11     9     7    15     9
   12     9     7    15     9
    7     9    12    13     9
    7     9    12    14     9
   10     9    12    13     9
   10     9    12    14     9
   11     9    12    13     9
   11     9    12    14     9
    4    12     9     7     9
    4    12     9    10     9
    4    12     9    11     9
    7    15    17    18     9
    7    15    17    19     9
   16    15    17    18     9
   16    15    17    19     9
   15    17    19    20     9
   15    17    19    21     9
   15    17    19    29     9
   18    17    19    20     9
   18    17    19    21     9
   18    17    19    29     9
   17    19    21    22     9
   17    19    21    23     9
   17    19    21    24     9
   20    19    21    22     9
   20    19    21    23     9
   20    19    21    24     9
   17    19    29    30     9
   17    19    29    31     9
   20    19    29    30     9
   20    19    29    31     9
   21    19    29    30     9
   21    19    29    31     9
   22    21    19    29     9
   23    21    19    29     9
   24    21    19    29     9
   19    21    24    25     9
   19    21    24    26     9
   22    21    24    25     9
   22    21    24    26     9
   23    21    24    25     9
   23    21    24    26     9
   21    24    26    27     9
   21    24    26    28     9
   25    24    26    27     9
   25    24    26    28     9
   19    29    31    32     9
   19    29    31    33     9
   30    29    31    32     9
   30    29    31    33     9
   29    31    33    34     9
   29    31    33    35     9
   29    31    33    45     9
   32    31    33    34     9
   32    31    33    35     9
   32    31    33    45     9
   31    33    35    36     9
   31    33    35    37     9
   31    33    35    41     9
   34    33    35    36     9
   34    33    35    37     9
   34    33    35    41     9
   31    33    45    46     9
   31    33    45    47     9
   34    33    45    46     9
   34    33    45    47     9
   35    33    45    46     9
   35    33    45    47     9
   36    35    33    45     9
   37    35    33    45     9
   41    35    33    45     9
   33    35    37    38     9
   33    35    37    39     9
   33    35    37    40     9
   36    35    37    38     9
   36    35    37    39     9
   36    35    37    40     9
   33    35    41    42     9
   33    35    41    43     9
   33    35    41    44     9
   36    35    41    42     9
   36    35    41    43     9
   36    35    41    44     9
   37    35    41    42     9
   37    35    41    43     9
   37    35    41    44     9
   38    37    35    41     9
   39    37    35    41     9
   40    37    35    41     9
   33    45    47    48     9
   33    45    47    49     9
   46    45    47    48     9
   46    45    47    49     9
   45    47    49    50     9
   45    47    49    51     9
   45    47    49    56     9
   48    47    49    50     9
   48    47    49    51     9
   48    47    49    56     9
   47    49    51    52     9
   47    49    51    53     9
   47    49    51    54     9
   50    49    51    52     9
   50    49    51    53     9
   50    49    51    54     9
   47    49    56    57     9
   47    49    56    58     9
   50    49    56    57     9
   50    49    56    58     9
   51    49    56    57     9
   51    49    56    58     9
   52    51    49    56     9
   53    51    49    56     9
   54    51    49    56     9
   49    51    54    55     9
   52    51    54    55     9
   53    51    54    55     9
   49    56    58    59     9
   49    56    58    60     9
   57    56    58    59     9
   57    56    58    60     9
   56    58    60    61     9
   56    58    60    62     9
   56    58    60    70     9
   59    58    60    61     9
   59    58    60    62     9
   59    58    60    70     9
   58    60    62    63     9
   58    60    62    64     9
   58    60    62    65     9
   61    60    62    63     9
   61    60    62    64     9
   61    60    62    65     9
   58    60    70    71     9
   58    60    70    72     9
   61    60    70    71     9
   61    60    70    72     9
   62    60    70    71     9
   62    60    70    72     9
   63    62    60    70     9
   64    62    60    70     9
   65    62    60    70     9
   60    62    65    66     9
   60    62    65    67     9
   63    62    65    66     9
   63    62    65    67     9
   64    62    65    66     9
   64    62    65    67     9
   62    65    67    68     9
   62    65    67    69     9
   66    65    67    68     9
   66    65    67    69     9
   60    70    72    73     9
   60    70    72    74     9
   71    70    72    73     9
   71    70    72    74     9
   70    72    74    75     9
   70    72    74    76     9
   70    72    74    87     9
   73    72    74    75     9
   73    72    74    76     9
   73    72    74    87     9
   72    74    76    77     9
   72    74    76    78     9
   72    74    76    79     9
   75    74    76    77     9
   75    74    76    78     9
   75    74    76    79     9
   72    74    87    88     9
   72    74    87    89     9
   75    74    87    88     9
   75    74    87    89     9
   76    74    87    88     9
   76    74    87    89     9
   77    76    74    87     9
   78    76    74    87     9
   79    76    74    87     9
   74    76    79    80     9
   74    76    79    81     9
   74    76    79    82     9
   77    76    79    80     9
   77    76    79    81     9
   77    76    79    82     9
   78    76    79    80     9
   78    76    79    81     9
   78    76    79    82     9
   76    79    82    83     9
   80    79    82    83     9
   81    79    82    83     9
   79    82    83    84     9
   79    82    83    85     9
   79    82    83    86     9
   74    87    89    90     9
   74    87    89    91     9
   88    87    89    90     9
   88    87    89    91     9
   87    89    91    92     9
   87    89    91    93     9
   87    89    91    98     9
   90    89    91    92     9
   90    89    91    93     9
   90    89    91    98     9
   89    91    93    94     9
   89    91    93    95     9
   89    91    93    96     9
   92    91    93    94     9
   92    91    93    95     9
   92    91    93    96     9
   89    91    98    99     9
   89    91    98   100     9
   92    91    98    99     9
   92    91    98   100     9
   93    91    98    99     9
   93    91    98   100     9
   94    93    91    98     9
   95    93    91    98     9
   96    93    91    98     9
   91    93    96    97     9
   94    93    96    97     9
   95    93    96    97     9
   91    98   100   101     9
   91    98   100   102     9
   99    98   100   101     9
   99    98   100   102     9
   98   100   102   103     9
   98   100   102   104     9
   98   100   102   115     9
  101   100   102   103     9
  101   100   102   104     9
  101   100   102   115     9
  100   102   104   105     9
  100   102   104   106     9
  100   102   104   107     9
  103   102   104   105     9
  103   102   104   106     9
  103   102   104   107     9
  100   102   115   116     9
  100   102   115   117     9
  103   102   115   116     9
  103   102   115   117     9
  104   102   115   116     9
  104   102   115   117     9
  105   104   102   115     9
  106   104   102   115     9
  107   104   102   115     9
  102   104   107   108     9
  102   104   107   109     9
  102   104   107   110     9
  105   104   107   108     9
  105   104   107   109     9
  105   104   107   110     9
  106   104   107   108     9
  106   104   107   109     9
  106   104   107   110     9
  104   107   110   111     9
  104   107   110   112     9
  108   107   110   111     9
  108   107   110   112     9
  109   107   110   111     9
  109   107   110   112     9
  107   110   112   113     9
  107   110   112   114     9
  111   110   112   113     9
  111   110   112   114     9
  102   115   117   118     9
  102   115   117   119     9
  116   115   117   118     9
  116   115   117   119     9
  115   117   119   120     9
  115   117   119   121     9
  115   117   119   126     9
  118   117   119   120     9
  118   117   119   121     9
  118   117   119   126     9
  117   119   121   122     9
  117   119   121   123     9
  117   119   121   124     9
  120   119   121   122     9
  120   119   121   123     9
  120   119   121   124     9
  117   119   126   127     9
  117   119   126   128     9
  120   119   126   127     9
  120   119   126   128     9
  121   119   126   127     9
  121   119   126   128     9
  122   121   119   126     9
  123   121   119   126     9
  124   121   119   126     9
  119   121   124   125     9
  122   121   124   125     9
  123   121   124   125     9

[ dihedrals ]
; ai	aj	ak	al	funct	q0	cq
   15     7    17    16     2
   17    15    19    18     2
   24    21    26    25     2
   24    26    21    25     2
   26    24    28    27     2
   26    24    27    28     2
   29    19    31    30     2
   31    29    33    32     2
   45    33    47    46     2
   47    45    49    48     2
   56    49    58    57     2
   58    56    60    59     2
   65    62    67    66     2
   65    67    62    66     2
   67    65    69    68     2
   67    65    68    69     2
   70    60    72    71     2
   72    70    74    73     2
   87    74    89    88     2
   89    87    91    90     2
   98    91   100    99     2
  100    98   102   101     2
  110   107   112   111     2
  110   112   107   111     2
  112   110   114   113     2
  112   110   113   114     2
  115   102   117   116     2
  117   115   119   118     2
  126   119   128   127     2

[ cmap ] 
; ai	aj	ak	al	am	funct
   15    17    19    29    31     1
   29    31    33    45    47     1
   45    47    49    56    58     1
   56    58    60    70    72     1
   70    72    74    87    89     1
   87    89    91    98   100     1
   98   100   102   115   117     1

#ifdef POSRES
[ position_restraints ]
    1     1    POSRES_FC_BB    POSRES_FC_BB    POSRES_FC_BB   
    4     1    POSRES_FC_SC    POSRES_FC_SC    POSRES_FC_SC   
    7     1    POSRES_FC_BB    POSRES_FC_BB    POSRES_FC_BB   
    9     1    POSRES_FC_SC    POSRES_FC_SC    POSRES_FC_SC   
   12     1    POSRES_FC_SC    POSRES_FC_SC    POSRES_FC_SC   
   15     1    POSRES_FC_BB    POSRES_FC_BB    POSRES_FC_BB   
   16     1    POSRES_FC_BB    POSRES_FC_BB    POSRES_FC_BB   
   17     1    POSRES_FC_BB    POSRES_FC_BB    POSRES_FC_BB   
   19     1    POSRES_FC_BB    POSRES_FC_BB    POSRES_FC_BB   
   21     1    POSRES_FC_SC    POSRES_FC_SC    POSRES_FC_SC   
   24     1    POSRES_FC_SC    POSRES_FC_SC    POSRES_FC_SC   
   25     1    POSRES_FC_SC    POSRES_FC_SC    POSRES_FC_SC   
   26     1    POSRES_FC_SC    POSRES_FC_SC    POSRES_FC_SC   
   29     1    POSRES_FC_BB    POSRES_FC_BB    POSRES_FC_BB   
   30     1    POSRES_FC_BB    POSRES_FC_BB    POSRES_FC_BB   
   31     1    POSRES_FC_BB    POSRES_FC_BB    POSRES_FC_BB   
   33     1    POSRES_FC_BB    POSRES_FC_BB    POSRES_FC_BB   
   35     1    POSRES_FC_SC    POSRES_FC_SC    POSRES_FC_SC   
   37     1    POSRES_FC_SC    POSRES_FC_SC    POSRES_FC_SC   
   41     1    POSRES_FC_SC    POSRES_FC_SC    POSRES_FC_SC   
   45     1    POSRES_FC_BB    POSRES_FC_BB    POSRES_FC_BB   
   46     1    POSRES_FC_BB    POSRES_FC_BB    POSRES_FC_BB   
   47     1    POSRES_FC_BB    POSRES_FC_BB    POSRES_FC_BB   
   49     1    POSRES_FC_BB    POSRES_FC_BB    POSRES_FC_BB   
   51     1    POSRES_FC_SC    POSRES_FC_SC    POSRES_FC_SC   
   54     1    POSRES_FC_SC    POSRES_FC_SC    POSRES_FC_SC   
   56     1    POSRES_FC_BB    POSRES_FC_BB    POSRES_FC_BB   
   57     1    POSRES_FC_BB    POSRES_FC_BB    POSRES_FC_BB   
   58     1    POSRES_FC_BB    POSRES_FC_BB    POSRES_FC_BB   
   60     1    POSRES_FC_BB    POSRES_FC_BB    POSRES_FC_BB   
   62     1    POSRES_FC_SC    POSRES_FC_SC    POSRES_FC_SC   
   65     1    POSRES_FC_SC    POSRES_FC_SC    POSRES_FC_SC   
   66     1    POSRES_FC_SC    POSRES_FC_SC    POSRES_FC_SC   
   67     1    POSRES_FC_SC    POSRES_FC_SC    POSRES_FC_SC   
   70     1    POSRES_FC_BB    POSRES_FC_BB    POSRES_FC_BB   
   71     1    POSRES_FC_BB    POSRES_FC_BB    POSRES_FC_BB   
   72     1    POSRES_FC_BB    POSRES_FC_BB    POSRES_FC_BB   
   74     1    POSRES_FC_BB    POSRES_FC_BB    POSRES_FC_BB   
   76     1    POSRES_FC_SC    POSRES_FC_SC    POSRES_FC_SC   
   79     1    POSRES_FC_SC    POSRES_FC_SC    POSRES_FC_SC   
   82     1    POSRES_FC_SC    POSRES_FC_SC    POSRES_FC_SC   
   83     1    POSRES_FC_SC    POSRES_FC_SC    POSRES_FC_SC   
   87     1    POSRES_FC_BB    POSRES_FC_BB    POSRES_FC_BB   
   88     1    POSRES_FC_BB    POSRES_FC_BB    POSRES_FC_BB   
   89     1    POSRES_FC_BB    POSRES_FC_BB    POSRES_FC_BB   
   91     1    POSRES_FC_BB    POSRES_FC_BB    POSRES_FC_BB   
   93     1    POSRES_FC_SC    POSRES_FC_SC    POSRES_FC_SC   
   96     1    POSRES_FC_SC    POSRES_FC_SC    POSRES_FC_SC   
   98     1    POSRES_FC_BB    POSRES_FC_BB    POSRES_FC_BB   
   99     1    POSRES_FC_BB    POSRES_FC_BB    POSRES_FC_BB   
  100     1    POSRES_FC_BB    POSRES_FC_BB    POSRES_FC_BB   
  102     1    POSRES_FC_BB    POSRES_FC_BB    POSRES_FC_BB   
  104     1    POSRES_FC_SC    POSRES_FC_SC    POSRES_FC_SC   
  107     1    POSRES_FC_SC    POSRES_FC_SC    POSRES_FC_SC   
  110     1    POSRES_FC_SC    POSRES_FC_SC    POSRES_FC_SC   
  111     1    POSRES_FC_SC    POSRES_FC_SC    POSRES_FC_SC   
  112     1    POSRES_FC_SC    POSRES_FC_SC    POSRES_FC_SC   
  115     1    POSRES_FC_BB    POSRES_FC_BB    POSRES_FC_BB   
  116     1    POSRES_FC_BB    POSRES_FC_BB    POSRES_FC_BB   
  117     1    POSRES_FC_BB    POSRES_FC_BB    POSRES_FC_BB   
  119     1    POSRES_FC_BB    POSRES_FC_BB    POSRES_FC_BB   
  121     1    POSRES_FC_SC    POSRES_FC_SC    POSRES_FC_SC   
  124     1    POSRES_FC_SC    POSRES_FC_SC    POSRES_FC_SC   
  126     1    POSRES_FC_BB    POSRES_FC_BB    POSRES_FC_BB   
  127     1    POSRES_FC_SC    POSRES_FC_SC    POSRES_FC_SC   
  128     1    POSRES_FC_SC    POSRES_FC_SC    POSRES_FC_SC   
#endif
